TITLE="results for TO code"
VARIABLES = "x", "y", "z", "density", "sigmaxx", "sigmayy", "sigmazz", "sigmaxy", "sigmaxz", "sigmayz"
ZONE T="load step 1", NODES= 12221, ELEMENTS= 10000, DATAPACKING=POINT, ZONETYPE=FEBRICK
               0.00000000                0.00000000                0.00000000                1.00000000               -0.00000000                0.00000000                0.09770914               -0.00000000                0.04247304                0.04487140
               1.00000000                0.00000000                0.00000000                1.00000000                0.00000000               -0.00000000                0.07963717                0.00000000                0.01379876                0.04134830
               2.00000000                0.00000000                0.00000000                1.00000000                0.00000000                0.00000000                0.04652035               -0.00000000               -0.00645997                0.02822414
               3.00000000                0.00000000                0.00000000                1.00000000                0.00000000               -0.00000000               -0.00231911                0.00000000               -0.00304403                0.00183999
               4.00000000                0.00000000                0.00000000                1.00000000               -0.00000000                0.00000000                0.00015129               -0.00000000                0.00115116               -0.00059463
               5.00000000                0.00000000                0.00000000                1.00000000               -0.00000000               -0.00000000               -0.00134924                0.00000000                0.00720203                0.00158935
               6.00000000                0.00000000                0.00000000                1.00000000                0.00000000                0.00000000                0.02974833               -0.00000000                0.02128030                0.02493214
               7.00000000                0.00000000                0.00000000                1.00000000               -0.00000000               -0.00000000                0.08501962               -0.00000000                0.01769525                0.05382564
               8.00000000                0.00000000                0.00000000                1.00000000                0.00000000               -0.00000000                0.10497519               -0.00000000               -0.00079462                0.06268739
               9.00000000                0.00000000                0.00000000                1.00000000                0.00000000                0.00000000                0.10978487                0.00000000               -0.02452356                0.06435046
              10.00000000                0.00000000                0.00000000                1.00000000                0.00000000               -0.00000000                0.13044576               -0.00000000               -0.06133233                0.06760152
               0.00000000                1.00000000                0.00000000                1.00000000               -0.00000000               -0.00000000                0.08062601               -0.00000000                0.04172085                0.01584095
               1.00000000                1.00000000                0.00000000                1.00000000               -0.00000000               -0.00000000                0.04917658               -0.00000000                0.01534150                0.01464566
               2.00000000                1.00000000                0.00000000                1.00000000               -0.00000000               -0.00000000                0.01555697                0.00000000                0.00302753                0.00611828
               3.00000000                1.00000000                0.00000000                1.00000000                0.00000000                0.00000000               -0.00108980               -0.00000000                0.00228985                0.00160538
               4.00000000                1.00000000                0.00000000                1.00000000                0.00000000               -0.00000000                0.00015628                0.00000000                0.00107088               -0.00093000
               5.00000000                1.00000000                0.00000000                1.00000000                0.00000000               -0.00000000               -0.00075473               -0.00000000                0.00119782                0.00024494
               6.00000000                1.00000000                0.00000000                1.00000000               -0.00000000               -0.00000000                0.00841446               -0.00000000                0.00568863                0.00416019
               7.00000000                1.00000000                0.00000000                1.00000000                0.00000000                0.00000000                0.04459011               -0.00000000                0.00748950                0.01541229
               8.00000000                1.00000000                0.00000000                1.00000000               -0.00000000                0.00000000                0.07983643               -0.00000000               -0.00638276                0.02555332
               9.00000000                1.00000000                0.00000000                1.00000000               -0.00000000               -0.00000000                0.09069227               -0.00000000               -0.02933274                0.02768033
              10.00000000                1.00000000                0.00000000                1.00000000                0.00000000               -0.00000000                0.10669330               -0.00000000               -0.06276712                0.02982833
               0.00000000                2.00000000                0.00000000                1.00000000                0.00000000               -0.00000000                0.04876472                0.00000000                0.03008003               -0.00512153
               1.00000000                2.00000000                0.00000000                1.00000000                0.00000000               -0.00000000                0.01577461                0.00000000                0.00774700                0.00296372
               2.00000000                2.00000000                0.00000000                1.00000000               -0.00000000               -0.00000000               -0.00286948               -0.00000000                0.00350364                0.00319405
               3.00000000                2.00000000                0.00000000                1.00000000               -0.00000000                0.00000000                0.00075355                0.00000000                0.00152151                0.00079932
               4.00000000                2.00000000                0.00000000                1.00000000               -0.00000000               -0.00000000               -0.00012511               -0.00000000                0.00065928                0.00002876
               5.00000000                2.00000000                0.00000000                1.00000000               -0.00000000                0.00000000                0.00031681                0.00000000                0.00016575               -0.00019506
               6.00000000                2.00000000                0.00000000                1.00000000                0.00000000                0.00000000               -0.00115686                0.00000000               -0.00038443                0.00102810
               7.00000000                2.00000000                0.00000000                1.00000000               -0.00000000                0.00000000                0.00513429                0.00000000                0.00111404                0.00148197
               8.00000000                2.00000000                0.00000000                1.00000000               -0.00000000                0.00000000                0.03692971                0.00000000               -0.00656255               -0.00091395
               9.00000000                2.00000000                0.00000000                1.00000000                0.00000000                0.00000000                0.06935185               -0.00000000               -0.02753412                0.00382300
              10.00000000                2.00000000                0.00000000                1.00000000               -0.00000000               -0.00000000                0.10408442               -0.00000000               -0.06146624                0.00343361
               0.00000000                3.00000000                0.00000000                1.00000000               -0.00000000                0.00000000               -0.00233048               -0.00000000                0.00225686               -0.00288769
               1.00000000                3.00000000                0.00000000                1.00000000               -0.00000000                0.00000000               -0.00109866                0.00000000                0.00181074                0.00259303
               2.00000000                3.00000000                0.00000000                1.00000000               -0.00000000                0.00000000                0.00077019                0.00000000                0.00093403                0.00159632
               3.00000000                3.00000000                0.00000000                1.00000000               -0.00000000               -0.00000000               -0.00013184               -0.00000000                0.00069945                0.00068221
               4.00000000                3.00000000                0.00000000                1.00000000               -0.00000000                0.00000000                0.00008122                0.00000000                0.00027442                0.00013563
               5.00000000                3.00000000                0.00000000                1.00000000               -0.00000000               -0.00000000               -0.00004900               -0.00000000               -0.00008466                0.00010857
               6.00000000                3.00000000                0.00000000                1.00000000               -0.00000000                0.00000000                0.00018122               -0.00000000               -0.00023819                0.00024980
               7.00000000                3.00000000                0.00000000                1.00000000                0.00000000                0.00000000                0.00050603                0.00000000               -0.00134849                0.00036452
               8.00000000                3.00000000                0.00000000                1.00000000                0.00000000               -0.00000000               -0.00596244               -0.00000000               -0.00373777                0.00141750
               9.00000000                3.00000000                0.00000000                1.00000000                0.00000000               -0.00000000                0.02267873               -0.00000000               -0.01182898               -0.00426334
              10.00000000                3.00000000                0.00000000                1.00000000                0.00000000                0.00000000                0.07110330                0.00000000               -0.04485299               -0.01839049
               0.00000000                4.00000000                0.00000000                1.00000000               -0.00000000                0.00000000                0.00043413                0.00000000               -0.00062119                0.00197004
               1.00000000                4.00000000                0.00000000                1.00000000                0.00000000                0.00000000                0.00025102                0.00000000               -0.00098823                0.00128472
               2.00000000                4.00000000                0.00000000                1.00000000               -0.00000000                0.00000000               -0.00022753               -0.00000000                0.00008668                0.00077118
               3.00000000                4.00000000                0.00000000                1.00000000                0.00000000                0.00000000                0.00011608                0.00000000                0.00011615                0.00034550
               4.00000000                4.00000000                0.00000000                1.00000000                0.00000000                0.00000000               -0.00001285               -0.00000000                0.00009068                0.00012369
               5.00000000                4.00000000                0.00000000                1.00000000               -0.00000000               -0.00000000                0.00002812               -0.00000000               -0.00003944                0.00006910
               6.00000000                4.00000000                0.00000000                1.00000000                0.00000000               -0.00000000                0.00003740                0.00000000               -0.00025597                0.00014272
               7.00000000                4.00000000                0.00000000                1.00000000                0.00000000               -0.00000000               -0.00017056                0.00000000               -0.00056233                0.00051201
               8.00000000                4.00000000                0.00000000                1.00000000               -0.00000000               -0.00000000                0.00120221               -0.00000000               -0.00089251                0.00088400
               9.00000000                4.00000000                0.00000000                1.00000000               -0.00000000               -0.00000000               -0.00180555               -0.00000000               -0.00238543                0.00039476
              10.00000000                4.00000000                0.00000000                1.00000000                0.00000000               -0.00000000               -0.00305501                0.00000000               -0.00461091               -0.00902576
               0.00000000                5.00000000                0.00000000                1.00000000                0.00000000                0.00000000               -0.00308139                0.00000000                0.00406037                0.01004336
               1.00000000                5.00000000                0.00000000                1.00000000                0.00000000               -0.00000000               -0.00200173               -0.00000000                0.00123829                0.00200385
               2.00000000                5.00000000                0.00000000                1.00000000                0.00000000                0.00000000                0.00094802                0.00000000               -0.00025871                0.00051566
               3.00000000                5.00000000                0.00000000                1.00000000               -0.00000000               -0.00000000               -0.00024438               -0.00000000                0.00007638                0.00003760
               4.00000000                5.00000000                0.00000000                1.00000000                0.00000000               -0.00000000                0.00006684                0.00000000               -0.00000471                0.00004226
               5.00000000                5.00000000                0.00000000                1.00000000                0.00000000                0.00000000                0.00000352                0.00000000               -0.00004312               -0.00000625
               6.00000000                5.00000000                0.00000000                1.00000000                0.00000000                0.00000000                0.00000976                0.00000000               -0.00012682                0.00004134
               7.00000000                5.00000000                0.00000000                1.00000000                0.00000000               -0.00000000                0.00008295               -0.00000000               -0.00015898                0.00012457
               8.00000000                5.00000000                0.00000000                1.00000000                0.00000000                0.00000000               -0.00013976                0.00000000               -0.00007685                0.00028548
               9.00000000                5.00000000                0.00000000                1.00000000               -0.00000000                0.00000000                0.00016585                0.00000000                0.00066877               -0.00026018
              10.00000000                5.00000000                0.00000000                1.00000000                0.00000000               -0.00000000                0.00024643               -0.00000000                0.00054641               -0.00242880
               0.00000000                6.00000000                0.00000000                1.00000000               -0.00000000               -0.00000000                0.06223198               -0.00000000                0.03635197                0.02534835
               1.00000000                6.00000000                0.00000000                1.00000000               -0.00000000                0.00000000                0.02210165                0.00000000                0.00554578                0.00948167
               2.00000000                6.00000000                0.00000000                1.00000000                0.00000000               -0.00000000               -0.00447745               -0.00000000                0.00114419                0.00031719
               3.00000000                6.00000000                0.00000000                1.00000000                0.00000000               -0.00000000                0.00089947                0.00000000               -0.00007553                0.00016833
               4.00000000                6.00000000                0.00000000                1.00000000               -0.00000000                0.00000000               -0.00011029               -0.00000000                0.00001870               -0.00021288
               5.00000000                6.00000000                0.00000000                1.00000000                0.00000000                0.00000000                0.00003130               -0.00000000               -0.00001000               -0.00010032
               6.00000000                6.00000000                0.00000000                1.00000000                0.00000000                0.00000000                0.00002370               -0.00000000               -0.00012657               -0.00011917
               7.00000000                6.00000000                0.00000000                1.00000000               -0.00000000               -0.00000000                0.00001240                0.00000000               -0.00019570               -0.00026532
               8.00000000                6.00000000                0.00000000                1.00000000               -0.00000000                0.00000000                0.00007825                0.00000000                0.00007700               -0.00049499
               9.00000000                6.00000000                0.00000000                1.00000000                0.00000000                0.00000000                0.00001165               -0.00000000                0.00042006               -0.00069561
              10.00000000                6.00000000                0.00000000                1.00000000                0.00000000                0.00000000               -0.00036969                0.00000000                0.00052472               -0.00088573
               0.00000000                7.00000000                0.00000000                1.00000000                0.00000000                0.00000000                0.09124495               -0.00000000                0.05013837                0.01292295
               1.00000000                7.00000000                0.00000000                1.00000000               -0.00000000               -0.00000000                0.05755752                0.00000000                0.01592390                0.00671836
               2.00000000                7.00000000                0.00000000                1.00000000                0.00000000                0.00000000                0.02003209               -0.00000000               -0.00063696                0.00338295
               3.00000000                7.00000000                0.00000000                1.00000000                0.00000000                0.00000000               -0.00151507               -0.00000000               -0.00033333               -0.00142408
               4.00000000                7.00000000                0.00000000                1.00000000                0.00000000               -0.00000000                0.00012382                0.00000000                0.00032265               -0.00047203
               5.00000000                7.00000000                0.00000000                1.00000000               -0.00000000               -0.00000000                0.00002985               -0.00000000                0.00007831               -0.00019204
               6.00000000                7.00000000                0.00000000                1.00000000               -0.00000000               -0.00000000                0.00002049                0.00000000               -0.00026841               -0.00021087
               7.00000000                7.00000000                0.00000000                1.00000000                0.00000000                0.00000000                0.00009944                0.00000000               -0.00067007               -0.00068534
               8.00000000                7.00000000                0.00000000                1.00000000                0.00000000               -0.00000000               -0.00002260               -0.00000000               -0.00086769               -0.00180956
               9.00000000                7.00000000                0.00000000                1.00000000               -0.00000000               -0.00000000                0.00032454                0.00000000                0.00033764               -0.00224384
              10.00000000                7.00000000                0.00000000                1.00000000                0.00000000                0.00000000                0.00034020               -0.00000000                0.00111753               -0.00052076
               0.00000000                8.00000000                0.00000000                1.00000000               -0.00000000               -0.00000000                0.09847870               -0.00000000                0.05749174               -0.00137060
               1.00000000                8.00000000                0.00000000                1.00000000                0.00000000                0.00000000                0.07484186               -0.00000000                0.02277666               -0.00669792
               2.00000000                8.00000000                0.00000000                1.00000000               -0.00000000               -0.00000000                0.03961966                0.00000000                0.00064471               -0.00741835
               3.00000000                8.00000000                0.00000000                1.00000000               -0.00000000               -0.00000000               -0.00455358               -0.00000000                0.00121498               -0.00304801
               4.00000000                8.00000000                0.00000000                1.00000000               -0.00000000                0.00000000                0.00073691               -0.00000000                0.00090675               -0.00098243
               5.00000000                8.00000000                0.00000000                1.00000000               -0.00000000                0.00000000               -0.00005469                0.00000000                0.00030438               -0.00012734
               6.00000000                8.00000000                0.00000000                1.00000000                0.00000000                0.00000000                0.00006945                0.00000000               -0.00046237                0.00001365
               7.00000000                8.00000000                0.00000000                1.00000000               -0.00000000                0.00000000               -0.00001979                0.00000000               -0.00177637               -0.00088885
               8.00000000                8.00000000                0.00000000                1.00000000                0.00000000                0.00000000                0.00103662                0.00000000               -0.00356174               -0.00356376
               9.00000000                8.00000000                0.00000000                1.00000000                0.00000000               -0.00000000               -0.00166877               -0.00000000               -0.00520723               -0.00797502
              10.00000000                8.00000000                0.00000000                1.00000000               -0.00000000               -0.00000000               -0.00428345               -0.00000000               -0.00361221                0.00040023
               0.00000000                9.00000000                0.00000000                1.00000000                0.00000000                0.00000000                0.10853079               -0.00000000                0.06414359               -0.02223253
               1.00000000                9.00000000                0.00000000                1.00000000                0.00000000               -0.00000000                0.08178390                0.00000000                0.02909934               -0.02569276
               2.00000000                9.00000000                0.00000000                1.00000000               -0.00000000                0.00000000                0.05166535               -0.00000000                0.00770246               -0.02191444
               3.00000000                9.00000000                0.00000000                1.00000000                0.00000000                0.00000000                0.00906758                0.00000000                0.00088594               -0.00799861
               4.00000000                9.00000000                0.00000000                1.00000000                0.00000000               -0.00000000               -0.00052671                0.00000000                0.00147096               -0.00160039
               5.00000000                9.00000000                0.00000000                1.00000000                0.00000000               -0.00000000                0.00007709               -0.00000000                0.00000541                0.00047884
               6.00000000                9.00000000                0.00000000                1.00000000               -0.00000000               -0.00000000                0.00002941                0.00000000               -0.00053100                0.00031990
               7.00000000                9.00000000                0.00000000                1.00000000               -0.00000000                0.00000000                0.00032704               -0.00000000               -0.00217662                0.00032110
               8.00000000                9.00000000                0.00000000                1.00000000                0.00000000                0.00000000               -0.00166639                0.00000000               -0.00794041               -0.00515116
               9.00000000                9.00000000                0.00000000                1.00000000               -0.00000000                0.00000000                0.03102363                0.00000000               -0.01746502               -0.01727649
              10.00000000                9.00000000                0.00000000                1.00000000                0.00000000                0.00000000                0.09327786                0.00000000               -0.05275782               -0.01159074
               0.00000000               10.00000000                0.00000000                1.00000000                0.00000000                0.00000000                0.12892017                0.00000000                0.06789655               -0.05833830
               1.00000000               10.00000000                0.00000000                1.00000000               -0.00000000               -0.00000000                0.10181940                0.00000000                0.03184359               -0.05701532
               2.00000000               10.00000000                0.00000000                1.00000000               -0.00000000                0.00000000                0.08325502                0.00000000                0.00760959               -0.05292858
               3.00000000               10.00000000                0.00000000                1.00000000               -0.00000000               -0.00000000                0.03938583                0.00000000               -0.01089304               -0.03052904