TITLE="results for TO code"
VARIABLES = "x", "y", "z", "density", "sigmaxx", "sigmayy", "sigmazz", "sigmaxy", "sigmaxz", "sigmayz"
ZONE T="load step 0", NODES= 12221, ELEMENTS= 10000, DATAPACKING=POINT, ZONETYPE=FEBRICK
               0.00000000                0.00000000                0.00000000                1.00000000               -0.00000000               -0.00000000                0.14835642               -0.00000000                0.07267093                0.07267034
               1.00000000                0.00000000                0.00000000                1.00000000                0.00000000                0.00000000                0.07439575               -0.00000000                0.02163805                0.05505511
               2.00000000                0.00000000                0.00000000                1.00000000               -0.00000000               -0.00000000                0.03824323               -0.00000000                0.01031438                0.03053729
               3.00000000                0.00000000                0.00000000                1.00000000               -0.00000000               -0.00000000                0.04054056                0.00000000                0.00994889                0.02863066
               4.00000000                0.00000000                0.00000000                1.00000000               -0.00000000                0.00000000                0.04548792                0.00000000                0.01015974                0.03209157
               5.00000000                0.00000000                0.00000000                1.00000000               -0.00000000               -0.00000000                0.05447746                0.00000000                0.00992853                0.03840989
               6.00000000                0.00000000                0.00000000                1.00000000                0.00000000                0.00000000                0.06817471                0.00000000                0.00847209                0.04811641
               7.00000000                0.00000000                0.00000000                1.00000000                0.00000000                0.00000000                0.08854199               -0.00000000                0.00368730                0.06257757
               8.00000000                0.00000000                0.00000000                1.00000000               -0.00000000                0.00000000                0.11851717               -0.00000000               -0.00997720                0.08346633
               9.00000000                0.00000000                0.00000000                1.00000000               -0.00000000               -0.00000000                0.16261501                0.00000000               -0.04794776                0.10749751
              10.00000000                0.00000000                0.00000000                1.00000000                0.00000000                0.00000000                0.24924960               -0.00000000               -0.13630435                0.11127153
               0.00000000                1.00000000                0.00000000                1.00000000               -0.00000000                0.00000000                0.07439578               -0.00000000                0.05505525                0.02163756
               1.00000000                1.00000000                0.00000000                1.00000000               -0.00000000               -0.00000000                0.02448324                0.00000000                0.02248495                0.02248482
               2.00000000                1.00000000                0.00000000                1.00000000               -0.00000000                0.00000000                0.00957220                0.00000000                0.01199563                0.00903262
               3.00000000                1.00000000                0.00000000                1.00000000                0.00000000                0.00000000                0.01165340               -0.00000000                0.00711947                0.00521727
               4.00000000                1.00000000                0.00000000                1.00000000               -0.00000000               -0.00000000                0.01394883                0.00000000                0.00503346                0.00527430
               5.00000000                1.00000000                0.00000000                1.00000000               -0.00000000                0.00000000                0.01729878               -0.00000000                0.00338666                0.00639433
               6.00000000                1.00000000                0.00000000                1.00000000               -0.00000000               -0.00000000                0.02212585                0.00000000                0.00079537                0.00862268
               7.00000000                1.00000000                0.00000000                1.00000000               -0.00000000                0.00000000                0.02942705                0.00000000               -0.00429674                0.01277323
               8.00000000                1.00000000                0.00000000                1.00000000                0.00000000               -0.00000000                0.04142948               -0.00000000               -0.01470165                0.02018852
               9.00000000                1.00000000                0.00000000                1.00000000                0.00000000                0.00000000                0.06262067               -0.00000000               -0.03665749                0.03145070
              10.00000000                1.00000000                0.00000000                1.00000000               -0.00000000               -0.00000000                0.12126398               -0.00000000               -0.09045179                0.01400132
               0.00000000                2.00000000                0.00000000                1.00000000                0.00000000                0.00000000                0.03824290                0.00000000                0.03053710                0.01031405
               1.00000000                2.00000000                0.00000000                1.00000000               -0.00000000               -0.00000000                0.00957211               -0.00000000                0.00903259                0.01199553
               2.00000000                2.00000000                0.00000000                1.00000000               -0.00000000                0.00000000               -0.00098315                0.00000000                0.00465281                0.00465281
               3.00000000                2.00000000                0.00000000                1.00000000               -0.00000000                0.00000000               -0.00057411                0.00000000                0.00233099                0.00216657
               4.00000000                2.00000000                0.00000000                1.00000000                0.00000000                0.00000000               -0.00088618               -0.00000000                0.00084611                0.00166019
               5.00000000                2.00000000                0.00000000                1.00000000                0.00000000                0.00000000               -0.00112238               -0.00000000               -0.00012618                0.00201256
               6.00000000                2.00000000                0.00000000                1.00000000                0.00000000               -0.00000000               -0.00139803               -0.00000000               -0.00123206                0.00298642
               7.00000000                2.00000000                0.00000000                1.00000000                0.00000000                0.00000000               -0.00169186               -0.00000000               -0.00288393                0.00495423
               8.00000000                2.00000000                0.00000000                1.00000000                0.00000000               -0.00000000               -0.00190181                0.00000000               -0.00526374                0.00849890
               9.00000000                2.00000000                0.00000000                1.00000000                0.00000000                0.00000000               -0.00077890               -0.00000000               -0.00736001                0.01303336
              10.00000000                2.00000000                0.00000000                1.00000000               -0.00000000               -0.00000000                0.00622189                0.00000000               -0.01153787               -0.00363392
               0.00000000                3.00000000                0.00000000                1.00000000               -0.00000000               -0.00000000                0.04054003               -0.00000000                0.02863031                0.00994867
               1.00000000                3.00000000                0.00000000                1.00000000               -0.00000000                0.00000000                0.01165327                0.00000000                0.00521721                0.00711939
               2.00000000                3.00000000                0.00000000                1.00000000               -0.00000000               -0.00000000               -0.00057410               -0.00000000                0.00216654                0.00233099
               3.00000000                3.00000000                0.00000000                1.00000000                0.00000000                0.00000000                0.00028485               -0.00000000                0.00114162                0.00114163
               4.00000000                3.00000000                0.00000000                1.00000000               -0.00000000                0.00000000                0.00017904               -0.00000000                0.00037539                0.00084506
               5.00000000                3.00000000                0.00000000                1.00000000                0.00000000                0.00000000                0.00020382               -0.00000000               -0.00015741                0.00098379
               6.00000000                3.00000000                0.00000000                1.00000000               -0.00000000               -0.00000000                0.00026291                0.00000000               -0.00062054                0.00146932
               7.00000000                3.00000000                0.00000000                1.00000000                0.00000000               -0.00000000                0.00035817               -0.00000000               -0.00106523                0.00238457
               8.00000000                3.00000000                0.00000000                1.00000000                0.00000000                0.00000000                0.00045622               -0.00000000               -0.00110939                0.00381730
               9.00000000                3.00000000                0.00000000                1.00000000               -0.00000000                0.00000000                0.00074263                0.00000000                0.00045519                0.00404423
              10.00000000                3.00000000                0.00000000                1.00000000               -0.00000000               -0.00000000                0.00042720               -0.00000000                0.00090297                0.00049395
               0.00000000                4.00000000                0.00000000                1.00000000               -0.00000000               -0.00000000                0.04548724               -0.00000000                0.03209113                0.01015962
               1.00000000                4.00000000                0.00000000                1.00000000                0.00000000                0.00000000                0.01394866               -0.00000000                0.00527423                0.00503342
               2.00000000                4.00000000                0.00000000                1.00000000                0.00000000               -0.00000000               -0.00088617                0.00000000                0.00166017                0.00084611
               3.00000000                4.00000000                0.00000000                1.00000000                0.00000000                0.00000000                0.00017904                0.00000000                0.00084505                0.00037539
               4.00000000                4.00000000                0.00000000                1.00000000                0.00000000                0.00000000                0.00004950               -0.00000000                0.00032061                0.00032061
               5.00000000                4.00000000                0.00000000                1.00000000                0.00000000                0.00000000                0.00004557                0.00000000                0.00000001                0.00040278
               6.00000000                4.00000000                0.00000000                1.00000000                0.00000000               -0.00000000                0.00005213               -0.00000000               -0.00021384                0.00059761
               7.00000000                4.00000000                0.00000000                1.00000000                0.00000000                0.00000000                0.00006639               -0.00000000               -0.00029897                0.00091288
               8.00000000                4.00000000                0.00000000                1.00000000                0.00000000                0.00000000                0.00009577               -0.00000000               -0.00005590                0.00117047
               9.00000000                4.00000000                0.00000000                1.00000000                0.00000000               -0.00000000                0.00081786                0.00000000                0.00018385                0.00117359
              10.00000000                4.00000000                0.00000000                1.00000000                0.00000000                0.00000000                0.00224913                0.00000000               -0.00149728                0.00239925
               0.00000000                5.00000000                0.00000000                1.00000000                0.00000000                0.00000000                0.05447669                0.00000000                0.03840941                0.00992852
               1.00000000                5.00000000                0.00000000                1.00000000               -0.00000000               -0.00000000                0.01729859                0.00000000                0.00639427                0.00338667
               2.00000000                5.00000000                0.00000000                1.00000000                0.00000000                0.00000000               -0.00112236               -0.00000000                0.00201255               -0.00012618
               3.00000000                5.00000000                0.00000000                1.00000000               -0.00000000               -0.00000000                0.00020382                0.00000000                0.00098378               -0.00015741
               4.00000000                5.00000000                0.00000000                1.00000000               -0.00000000                0.00000000                0.00004557               -0.00000000                0.00040278                0.00000001
               5.00000000                5.00000000                0.00000000                1.00000000                0.00000000               -0.00000000                0.00003955               -0.00000000                0.00009849                0.00009849
               6.00000000                5.00000000                0.00000000                1.00000000               -0.00000000                0.00000000                0.00003715               -0.00000000               -0.00007261                0.00015807
               7.00000000                5.00000000                0.00000000                1.00000000                0.00000000               -0.00000000                0.00007505                0.00000000               -0.00014449                0.00018205
               8.00000000                5.00000000                0.00000000                1.00000000               -0.00000000                0.00000000                0.00028205               -0.00000000               -0.00021606                0.00018191
               9.00000000                5.00000000                0.00000000                1.00000000                0.00000000               -0.00000000                0.00227352               -0.00000000               -0.00101404                0.00063814
              10.00000000                5.00000000                0.00000000                1.00000000               -0.00000000                0.00000000                0.00697331                0.00000000               -0.00611049                0.00392534
               0.00000000                6.00000000                0.00000000                1.00000000               -0.00000000               -0.00000000                0.06817392                0.00000000                0.04811595                0.00847220
               1.00000000                6.00000000                0.00000000                1.00000000                0.00000000               -0.00000000                0.02212569                0.00000000                0.00862267                0.00079544
               2.00000000                6.00000000                0.00000000                1.00000000               -0.00000000               -0.00000000               -0.00139801               -0.00000000                0.00298641               -0.00123205
               3.00000000                6.00000000                0.00000000                1.00000000                0.00000000                0.00000000                0.00026291                0.00000000                0.00146931               -0.00062055
               4.00000000                6.00000000                0.00000000                1.00000000                0.00000000               -0.00000000                0.00005213               -0.00000000                0.00059761               -0.00021384
               5.00000000                6.00000000                0.00000000                1.00000000                0.00000000               -0.00000000                0.00003715               -0.00000000                0.00015807               -0.00007261
               6.00000000                6.00000000                0.00000000                1.00000000               -0.00000000                0.00000000                0.00005615                0.00000000               -0.00009773               -0.00009774
               7.00000000                6.00000000                0.00000000                1.00000000                0.00000000               -0.00000000                0.00027259               -0.00000000               -0.00033331               -0.00025657
               8.00000000                6.00000000                0.00000000                1.00000000               -0.00000000               -0.00000000                0.00106464               -0.00000000               -0.00085022               -0.00047703
               9.00000000                6.00000000                0.00000000                1.00000000               -0.00000000               -0.00000000                0.00566381                0.00000000               -0.00315048                0.00010248
              10.00000000                6.00000000                0.00000000                1.00000000                0.00000000               -0.00000000                0.01658877               -0.00000000               -0.01475931                0.00610713
               0.00000000                7.00000000                0.00000000                1.00000000                0.00000000                0.00000000                0.08854123               -0.00000000                0.06257720                0.00368753
               1.00000000                7.00000000                0.00000000                1.00000000               -0.00000000               -0.00000000                0.02942696                0.00000000                0.01277332               -0.00429659
               2.00000000                7.00000000                0.00000000                1.00000000               -0.00000000                0.00000000               -0.00169183                0.00000000                0.00495424               -0.00288392
               3.00000000                7.00000000                0.00000000                1.00000000               -0.00000000               -0.00000000                0.00035817                0.00000000                0.00238457               -0.00106524
               4.00000000                7.00000000                0.00000000                1.00000000               -0.00000000                0.00000000                0.00006640                0.00000000                0.00091288               -0.00029898
               5.00000000                7.00000000                0.00000000                1.00000000               -0.00000000                0.00000000                0.00007506               -0.00000000                0.00018205               -0.00014451
               6.00000000                7.00000000                0.00000000                1.00000000                0.00000000               -0.00000000                0.00027260               -0.00000000               -0.00025657               -0.00033332
               7.00000000                7.00000000                0.00000000                1.00000000               -0.00000000               -0.00000000                0.00108598                0.00000000               -0.00086123               -0.00086124
               8.00000000                7.00000000                0.00000000                1.00000000                0.00000000               -0.00000000                0.00331148               -0.00000000               -0.00243000               -0.00188968
               9.00000000                7.00000000                0.00000000                1.00000000               -0.00000000               -0.00000000                0.01295664                0.00000000               -0.00773197               -0.00219637
              10.00000000                7.00000000                0.00000000                1.00000000               -0.00000000                0.00000000                0.03538044               -0.00000000               -0.03104987                0.00770877
               0.00000000                8.00000000                0.00000000                1.00000000               -0.00000000               -0.00000000                0.11851637               -0.00000000                0.08346599               -0.00997684
               1.00000000                8.00000000                0.00000000                1.00000000                0.00000000               -0.00000000                0.04142956                0.00000000                0.02018871               -0.01470136
               2.00000000                8.00000000                0.00000000                1.00000000                0.00000000                0.00000000               -0.00190171               -0.00000000                0.00849890               -0.00526373
               3.00000000                8.00000000                0.00000000                1.00000000               -0.00000000                0.00000000                0.00045622                0.00000000                0.00381730               -0.00110943
               4.00000000                8.00000000                0.00000000                1.00000000                0.00000000                0.00000000                0.00009578               -0.00000000                0.00117048               -0.00005593
               5.00000000                8.00000000                0.00000000                1.00000000               -0.00000000               -0.00000000                0.00028209               -0.00000000                0.00018191               -0.00021611
               6.00000000                8.00000000                0.00000000                1.00000000               -0.00000000                0.00000000                0.00106471                0.00000000               -0.00047704               -0.00085029
               7.00000000                8.00000000                0.00000000                1.00000000                0.00000000                0.00000000                0.00331155               -0.00000000               -0.00188970               -0.00243006
               8.00000000                8.00000000                0.00000000                1.00000000                0.00000000                0.00000000                0.00875202               -0.00000000               -0.00569276               -0.00569272
               9.00000000                8.00000000                0.00000000                1.00000000                0.00000000               -0.00000000                0.02754154               -0.00000000               -0.01754562               -0.01000124
              10.00000000                8.00000000                0.00000000                1.00000000               -0.00000000                0.00000000                0.06970000               -0.00000000               -0.06021209                0.00276009
               0.00000000                9.00000000                0.00000000                1.00000000               -0.00000000               -0.00000000                0.16261392                0.00000000                0.10749681               -0.04794686
               1.00000000                9.00000000                0.00000000                1.00000000                0.00000000               -0.00000000                0.06262120                0.00000000                0.03145094               -0.03665708
               2.00000000                9.00000000                0.00000000                1.00000000               -0.00000000               -0.00000000               -0.00077849               -0.00000000                0.01303336               -0.00736017
               3.00000000                9.00000000                0.00000000                1.00000000                0.00000000               -0.00000000                0.00074268               -0.00000000                0.00404431                0.00045506
               4.00000000                9.00000000                0.00000000                1.00000000               -0.00000000               -0.00000000                0.00081800                0.00000000                0.00117362                0.00018376
               5.00000000                9.00000000                0.00000000                1.00000000               -0.00000000                0.00000000                0.00227375                0.00000000                0.00063813               -0.00101421
               6.00000000                9.00000000                0.00000000                1.00000000               -0.00000000                0.00000000                0.00566413               -0.00000000                0.00010242               -0.00315071
               7.00000000                9.00000000                0.00000000                1.00000000               -0.00000000               -0.00000000                0.01295700                0.00000000               -0.00219654               -0.00773219
               8.00000000                9.00000000                0.00000000                1.00000000                0.00000000               -0.00000000                0.02754179               -0.00000000               -0.01000160               -0.01754558
               9.00000000                9.00000000                0.00000000                1.00000000               -0.00000000                0.00000000                0.06916941                0.00000000               -0.03287278               -0.03287211
              10.00000000                9.00000000                0.00000000                1.00000000                0.00000000               -0.00000000                0.14181959               -0.00000000               -0.10603311               -0.02921753
               0.00000000               10.00000000                0.00000000                1.00000000                0.00000000                0.00000000                0.24924573               -0.00000000                0.11127083               -0.13630102
               1.00000000               10.00000000                0.00000000                1.00000000               -0.00000000               -0.00000000                0.12126392               -0.00000000                0.01400263               -0.09045122
               2.00000000               10.00000000                0.00000000                1.00000000                0.00000000               -0.00000000                0.00622319                0.00000000               -0.00363371               -0.01153882
               3.00000000               10.00000000                0.00000000                1.00000000               -0.00000000               -0.00000000                0.00042743               -0.00000000                0.00049402                0.00090267