TITLE="results for TO code"
VARIABLES = "x", "y", "z", "density", "sigmaxx", "sigmayy", "sigmazz", "sigmaxy", "sigmaxz", "sigmayz"
ZONE T="load step 1", NODES= 12221, ELEMENTS= 10000, DATAPACKING=POINT, ZONETYPE=FEBRICK
               0.00000000                0.00000000                0.00000000                1.00000000               -0.00000000               -0.00000000                0.09770469                0.00000000                0.04247083                0.04486979
               1.00000000                0.00000000                0.00000000                1.00000000                0.00000000               -0.00000000                0.07963259                0.00000000                0.01379811                0.04134660
               2.00000000                0.00000000                0.00000000                1.00000000               -0.00000000               -0.00000000                0.04651637               -0.00000000               -0.00645992                0.02822243
               3.00000000                0.00000000                0.00000000                1.00000000               -0.00000000                0.00000000               -0.00231891                0.00000000               -0.00304373                0.00183973
               4.00000000                0.00000000                0.00000000                1.00000000                0.00000000                0.00000000                0.00015132                0.00000000                0.00115155               -0.00059462
               5.00000000                0.00000000                0.00000000                1.00000000               -0.00000000               -0.00000000               -0.00134975                0.00000000                0.00720331                0.00159014
               6.00000000                0.00000000                0.00000000                1.00000000                0.00000000                0.00000000                0.02975993               -0.00000000                0.02128279                0.02493785
               7.00000000                0.00000000                0.00000000                1.00000000               -0.00000000               -0.00000000                0.08502257                0.00000000                0.01769330                0.05382645
               8.00000000                0.00000000                0.00000000                1.00000000                0.00000000                0.00000000                0.10497321                0.00000000               -0.00079588                0.06268700
               9.00000000                0.00000000                0.00000000                1.00000000               -0.00000000               -0.00000000                0.10978388               -0.00000000               -0.02452403                0.06435009
              10.00000000                0.00000000                0.00000000                1.00000000               -0.00000000                0.00000000                0.13044611               -0.00000000               -0.06133271                0.06760173
               0.00000000                1.00000000                0.00000000                1.00000000                0.00000000                0.00000000                0.08062207               -0.00000000                0.04171960                0.01584073
               1.00000000                1.00000000                0.00000000                1.00000000               -0.00000000               -0.00000000                0.04917408                0.00000000                0.01534080                0.01464473
               2.00000000                1.00000000                0.00000000                1.00000000               -0.00000000               -0.00000000                0.01555580                0.00000000                0.00302729                0.00611751
               3.00000000                1.00000000                0.00000000                1.00000000                0.00000000               -0.00000000               -0.00108974               -0.00000000                0.00228974                0.00160522
               4.00000000                1.00000000                0.00000000                1.00000000               -0.00000000               -0.00000000                0.00015631                0.00000000                0.00107089               -0.00093006
               5.00000000                1.00000000                0.00000000                1.00000000                0.00000000                0.00000000               -0.00075525               -0.00000000                0.00119803                0.00024529
               6.00000000                1.00000000                0.00000000                1.00000000               -0.00000000                0.00000000                0.00842012                0.00000000                0.00569011                0.00416072
               7.00000000                1.00000000                0.00000000                1.00000000                0.00000000               -0.00000000                0.04459008               -0.00000000                0.00748807                0.01541226
               8.00000000                1.00000000                0.00000000                1.00000000               -0.00000000                0.00000000                0.07983442               -0.00000000               -0.00638323                0.02555336
               9.00000000                1.00000000                0.00000000                1.00000000               -0.00000000                0.00000000                0.09069265               -0.00000000               -0.02933345                0.02768021
              10.00000000                1.00000000                0.00000000                1.00000000                0.00000000                0.00000000                0.10669453               -0.00000000               -0.06276808                0.02982830
               0.00000000                2.00000000                0.00000000                1.00000000               -0.00000000                0.00000000                0.04876196                0.00000000                0.03007913               -0.00512157
               1.00000000                2.00000000                0.00000000                1.00000000                0.00000000               -0.00000000                0.01577365                0.00000000                0.00774650                0.00296337
               2.00000000                2.00000000                0.00000000                1.00000000                0.00000000               -0.00000000               -0.00286929               -0.00000000                0.00350344                0.00319379
               3.00000000                2.00000000                0.00000000                1.00000000               -0.00000000                0.00000000                0.00075350                0.00000000                0.00152138                0.00079920
               4.00000000                2.00000000                0.00000000                1.00000000               -0.00000000               -0.00000000               -0.00012513               -0.00000000                0.00065922                0.00002874
               5.00000000                2.00000000                0.00000000                1.00000000               -0.00000000                0.00000000                0.00031694               -0.00000000                0.00016572               -0.00019509
               6.00000000                2.00000000                0.00000000                1.00000000               -0.00000000                0.00000000               -0.00115699                0.00000000               -0.00038499                0.00102815
               7.00000000                2.00000000                0.00000000                1.00000000               -0.00000000                0.00000000                0.00513012               -0.00000000                0.00111311                0.00148326
               8.00000000                2.00000000                0.00000000                1.00000000                0.00000000                0.00000000                0.03692758               -0.00000000               -0.00656189               -0.00091353
               9.00000000                2.00000000                0.00000000                1.00000000                0.00000000                0.00000000                0.06935314                0.00000000               -0.02753459                0.00382275
              10.00000000                2.00000000                0.00000000                1.00000000                0.00000000                0.00000000                0.10408666               -0.00000000               -0.06146745                0.00343323
               0.00000000                3.00000000                0.00000000                1.00000000                0.00000000                0.00000000               -0.00233033               -0.00000000                0.00225669               -0.00288753
               1.00000000                3.00000000                0.00000000                1.00000000               -0.00000000                0.00000000               -0.00109860               -0.00000000                0.00181064                0.00259293
               2.00000000                3.00000000                0.00000000                1.00000000               -0.00000000                0.00000000                0.00077014                0.00000000                0.00093394                0.00159618
               3.00000000                3.00000000                0.00000000                1.00000000                0.00000000               -0.00000000               -0.00013184               -0.00000000                0.00069939                0.00068214
               4.00000000                3.00000000                0.00000000                1.00000000               -0.00000000               -0.00000000                0.00008123                0.00000000                0.00027437                0.00013560
               5.00000000                3.00000000                0.00000000                1.00000000               -0.00000000               -0.00000000               -0.00004900                0.00000000               -0.00008476                0.00010859
               6.00000000                3.00000000                0.00000000                1.00000000               -0.00000000               -0.00000000                0.00018117               -0.00000000               -0.00023836                0.00025002
               7.00000000                3.00000000                0.00000000                1.00000000                0.00000000                0.00000000                0.00050652                0.00000000               -0.00134845                0.00036490
               8.00000000                3.00000000                0.00000000                1.00000000                0.00000000               -0.00000000               -0.00596233                0.00000000               -0.00373781                0.00141774
               9.00000000                3.00000000                0.00000000                1.00000000               -0.00000000               -0.00000000                0.02267941               -0.00000000               -0.01182898               -0.00426355
              10.00000000                3.00000000                0.00000000                1.00000000               -0.00000000                0.00000000                0.07110570                0.00000000               -0.04485410               -0.01839134
               0.00000000                4.00000000                0.00000000                1.00000000               -0.00000000               -0.00000000                0.00043418                0.00000000               -0.00062124                0.00197031
               1.00000000                4.00000000                0.00000000                1.00000000                0.00000000                0.00000000                0.00025102               -0.00000000               -0.00098829                0.00128470
               2.00000000                4.00000000                0.00000000                1.00000000               -0.00000000               -0.00000000               -0.00022753               -0.00000000                0.00008666                0.00077108
               3.00000000                4.00000000                0.00000000                1.00000000               -0.00000000                0.00000000                0.00011608                0.00000000                0.00011614                0.00034542
               4.00000000                4.00000000                0.00000000                1.00000000                0.00000000               -0.00000000               -0.00001284               -0.00000000                0.00009066                0.00012366
               5.00000000                4.00000000                0.00000000                1.00000000               -0.00000000                0.00000000                0.00002812               -0.00000000               -0.00003947                0.00006912
               6.00000000                4.00000000                0.00000000                1.00000000                0.00000000                0.00000000                0.00003742                0.00000000               -0.00025600                0.00014279
               7.00000000                4.00000000                0.00000000                1.00000000               -0.00000000               -0.00000000               -0.00017061               -0.00000000               -0.00056234                0.00051211
               8.00000000                4.00000000                0.00000000                1.00000000               -0.00000000                0.00000000                0.00120222               -0.00000000               -0.00089246                0.00088406
               9.00000000                4.00000000                0.00000000                1.00000000                0.00000000                0.00000000               -0.00180560                0.00000000               -0.00238544                0.00039473
              10.00000000                4.00000000                0.00000000                1.00000000               -0.00000000               -0.00000000               -0.00305517               -0.00000000               -0.00461100               -0.00902606
               0.00000000                5.00000000                0.00000000                1.00000000               -0.00000000                0.00000000               -0.00308201                0.00000000                0.00406102                0.01004450
               1.00000000                5.00000000                0.00000000                1.00000000                0.00000000               -0.00000000               -0.00200187               -0.00000000                0.00123847                0.00200385
               2.00000000                5.00000000                0.00000000                1.00000000               -0.00000000                0.00000000                0.00094806                0.00000000               -0.00025862                0.00051548
               3.00000000                5.00000000                0.00000000                1.00000000               -0.00000000                0.00000000               -0.00024437               -0.00000000                0.00007645                0.00003748
               4.00000000                5.00000000                0.00000000                1.00000000               -0.00000000               -0.00000000                0.00006684                0.00000000               -0.00000466                0.00004221
               5.00000000                5.00000000                0.00000000                1.00000000               -0.00000000                0.00000000                0.00000353               -0.00000000               -0.00004310               -0.00000625
               6.00000000                5.00000000                0.00000000                1.00000000               -0.00000000               -0.00000000                0.00000976                0.00000000               -0.00012682                0.00004136
               7.00000000                5.00000000                0.00000000                1.00000000                0.00000000                0.00000000                0.00008296               -0.00000000               -0.00015897                0.00012459
               8.00000000                5.00000000                0.00000000                1.00000000                0.00000000                0.00000000               -0.00013976                0.00000000               -0.00007684                0.00028549
               9.00000000                5.00000000                0.00000000                1.00000000               -0.00000000                0.00000000                0.00016585               -0.00000000                0.00066881               -0.00026020
              10.00000000                5.00000000                0.00000000                1.00000000               -0.00000000               -0.00000000                0.00024644                0.00000000                0.00054643               -0.00242888
               0.00000000                6.00000000                0.00000000                1.00000000               -0.00000000               -0.00000000                0.06224212               -0.00000000                0.03635633                0.02535071
               1.00000000                6.00000000                0.00000000                1.00000000                0.00000000                0.00000000                0.02210420                0.00000000                0.00554709                0.00948209
               2.00000000                6.00000000                0.00000000                1.00000000               -0.00000000                0.00000000               -0.00447737               -0.00000000                0.00114456                0.00031670
               3.00000000                6.00000000                0.00000000                1.00000000                0.00000000               -0.00000000                0.00089944               -0.00000000               -0.00007522                0.00016809
               4.00000000                6.00000000                0.00000000                1.00000000               -0.00000000                0.00000000               -0.00011028               -0.00000000                0.00001882               -0.00021293
               5.00000000                6.00000000                0.00000000                1.00000000               -0.00000000                0.00000000                0.00003130               -0.00000000               -0.00000996               -0.00010033
               6.00000000                6.00000000                0.00000000                1.00000000                0.00000000               -0.00000000                0.00002371                0.00000000               -0.00012656               -0.00011917
               7.00000000                6.00000000                0.00000000                1.00000000               -0.00000000               -0.00000000                0.00001240                0.00000000               -0.00019570               -0.00026532
               8.00000000                6.00000000                0.00000000                1.00000000               -0.00000000               -0.00000000                0.00007825                0.00000000                0.00007701               -0.00049500
               9.00000000                6.00000000                0.00000000                1.00000000               -0.00000000               -0.00000000                0.00001165               -0.00000000                0.00042007               -0.00069564
              10.00000000                6.00000000                0.00000000                1.00000000                0.00000000                0.00000000               -0.00036970                0.00000000                0.00052473               -0.00088576
               0.00000000                7.00000000                0.00000000                1.00000000                0.00000000                0.00000000                0.09125606               -0.00000000                0.05014337                0.01292326
               1.00000000                7.00000000                0.00000000                1.00000000               -0.00000000               -0.00000000                0.05755927                0.00000000                0.01592642                0.00671822
               2.00000000                7.00000000                0.00000000                1.00000000               -0.00000000                0.00000000                0.02002958               -0.00000000               -0.00063497                0.00338214
               3.00000000                7.00000000                0.00000000                1.00000000               -0.00000000                0.00000000               -0.00151483                0.00000000               -0.00033261               -0.00142417
               4.00000000                7.00000000                0.00000000                1.00000000                0.00000000               -0.00000000                0.00012383                0.00000000                0.00032284               -0.00047204
               5.00000000                7.00000000                0.00000000                1.00000000               -0.00000000                0.00000000                0.00002985               -0.00000000                0.00007836               -0.00019203
               6.00000000                7.00000000                0.00000000                1.00000000               -0.00000000               -0.00000000                0.00002050               -0.00000000               -0.00026841               -0.00021088
               7.00000000                7.00000000                0.00000000                1.00000000                0.00000000               -0.00000000                0.00009944                0.00000000               -0.00067008               -0.00068536
               8.00000000                7.00000000                0.00000000                1.00000000                0.00000000                0.00000000               -0.00002260               -0.00000000               -0.00086771               -0.00180960
               9.00000000                7.00000000                0.00000000                1.00000000               -0.00000000               -0.00000000                0.00032455                0.00000000                0.00033763               -0.00224391
              10.00000000                7.00000000                0.00000000                1.00000000                0.00000000                0.00000000                0.00034021               -0.00000000                0.00111756               -0.00052080
               0.00000000                8.00000000                0.00000000                1.00000000               -0.00000000               -0.00000000                0.09848730               -0.00000000                0.05749653               -0.00137202
               1.00000000                8.00000000                0.00000000                1.00000000                0.00000000                0.00000000                0.07484236                0.00000000                0.02277892               -0.00669811
               2.00000000                8.00000000                0.00000000                1.00000000                0.00000000               -0.00000000                0.03961510               -0.00000000                0.00064720               -0.00741787
               3.00000000                8.00000000                0.00000000                1.00000000               -0.00000000                0.00000000               -0.00455286                0.00000000                0.00121572               -0.00304776
               4.00000000                8.00000000                0.00000000                1.00000000               -0.00000000                0.00000000                0.00073681                0.00000000                0.00090695               -0.00098232
               5.00000000                8.00000000                0.00000000                1.00000000                0.00000000                0.00000000               -0.00005468               -0.00000000                0.00030440               -0.00012731
               6.00000000                8.00000000                0.00000000                1.00000000                0.00000000                0.00000000                0.00006945                0.00000000               -0.00046237                0.00001364
               7.00000000                8.00000000                0.00000000                1.00000000                0.00000000                0.00000000               -0.00001979                0.00000000               -0.00177640               -0.00088887
               8.00000000                8.00000000                0.00000000                1.00000000               -0.00000000                0.00000000                0.00103664                0.00000000               -0.00356182               -0.00356386
               9.00000000                8.00000000                0.00000000                1.00000000                0.00000000               -0.00000000               -0.00166881               -0.00000000               -0.00520731               -0.00797519
              10.00000000                8.00000000                0.00000000                1.00000000               -0.00000000                0.00000000               -0.00428358                0.00000000               -0.00361233                0.00040013
               0.00000000                9.00000000                0.00000000                1.00000000                0.00000000               -0.00000000                0.10853832                0.00000000                0.06414653               -0.02223569
               1.00000000                9.00000000                0.00000000                1.00000000                0.00000000                0.00000000                0.08178369                0.00000000                0.02910015               -0.02569281
               2.00000000                9.00000000                0.00000000                1.00000000               -0.00000000                0.00000000                0.05165997                0.00000000                0.00770357               -0.02191240
               3.00000000                9.00000000                0.00000000                1.00000000                0.00000000               -0.00000000                0.00906567               -0.00000000                0.00088691               -0.00799762
               4.00000000                9.00000000                0.00000000                1.00000000               -0.00000000                0.00000000               -0.00052655                0.00000000                0.00147099               -0.00159995
               5.00000000                9.00000000                0.00000000                1.00000000               -0.00000000               -0.00000000                0.00007708                0.00000000                0.00000546                0.00047881
               6.00000000                9.00000000                0.00000000                1.00000000               -0.00000000               -0.00000000                0.00002942               -0.00000000               -0.00053097                0.00031989
               7.00000000                9.00000000                0.00000000                1.00000000               -0.00000000                0.00000000                0.00032705               -0.00000000               -0.00217667                0.00032108
               8.00000000                9.00000000                0.00000000                1.00000000                0.00000000               -0.00000000               -0.00166643                0.00000000               -0.00794058               -0.00515127
               9.00000000                9.00000000                0.00000000                1.00000000               -0.00000000                0.00000000                0.03102436                0.00000000               -0.01746546               -0.01727701
              10.00000000                9.00000000                0.00000000                1.00000000                0.00000000                0.00000000                0.09327991               -0.00000000               -0.05275808               -0.01159150
               0.00000000               10.00000000                0.00000000                1.00000000                0.00000000                0.00000000                0.12892767               -0.00000000                0.06789551               -0.05834375
               1.00000000               10.00000000                0.00000000                1.00000000               -0.00000000               -0.00000000                0.10181884               -0.00000000                0.03184062               -0.05701511
               2.00000000               10.00000000                0.00000000                1.00000000                0.00000000               -0.00000000                0.08324693               -0.00000000                0.00760788               -0.05292306
               3.00000000               10.00000000                0.00000000                1.00000000               -0.00000000               -0.00000000                0.03937876                0.00000000               -0.01089127               -0.03052357