TITLE="results for TO code"
VARIABLES = "x", "y", "z", "density", "sigmaxx", "sigmayy", "sigmazz", "sigmaxy", "sigmaxz", "sigmayz"
ZONE T="load step 1", NODES= 12221, ELEMENTS= 10000, DATAPACKING=POINT, ZONETYPE=FEBRICK
               0.00000000                0.00000000                0.00000000                1.00000000               -0.00000000                0.00000000                0.09768109                0.00000000                0.04245872                0.04486180
               1.00000000                0.00000000                0.00000000                1.00000000               -0.00000000                0.00000000                0.07960882                0.00000000                0.01379433                0.04133757
               2.00000000                0.00000000                0.00000000                1.00000000                0.00000000               -0.00000000                0.04649610                0.00000000               -0.00645981                0.02821342
               3.00000000                0.00000000                0.00000000                1.00000000                0.00000000                0.00000000               -0.00231792               -0.00000000               -0.00304220                0.00183839
               4.00000000                0.00000000                0.00000000                1.00000000                0.00000000                0.00000000                0.00015150                0.00000000                0.00115358               -0.00059456
               5.00000000                0.00000000                0.00000000                1.00000000               -0.00000000                0.00000000               -0.00135235                0.00000000                0.00721000                0.00159429
               6.00000000                0.00000000                0.00000000                1.00000000               -0.00000000               -0.00000000                0.02982037               -0.00000000                0.02129580                0.02496853
               7.00000000                0.00000000                0.00000000                1.00000000                0.00000000                0.00000000                0.08504075                0.00000000                0.01768260                0.05383354
               8.00000000                0.00000000                0.00000000                1.00000000                0.00000000               -0.00000000                0.10496385               -0.00000000               -0.00080426                0.06268605
               9.00000000                0.00000000                0.00000000                1.00000000               -0.00000000               -0.00000000                0.10977560               -0.00000000               -0.02452834                0.06434625
              10.00000000                0.00000000                0.00000000                1.00000000               -0.00000000                0.00000000                0.13044193               -0.00000000               -0.06133494                0.06759802
               0.00000000                1.00000000                0.00000000                1.00000000               -0.00000000                0.00000000                0.08060197                0.00000000                0.04171320                0.01583989
               1.00000000                1.00000000                0.00000000                1.00000000                0.00000000               -0.00000000                0.04916161               -0.00000000                0.01533726                0.01463980
               2.00000000                1.00000000                0.00000000                1.00000000                0.00000000                0.00000000                0.01555019                0.00000000                0.00302594                0.00611337
               3.00000000                1.00000000                0.00000000                1.00000000                0.00000000               -0.00000000               -0.00108947               -0.00000000                0.00228911                0.00160435
               4.00000000                1.00000000                0.00000000                1.00000000               -0.00000000               -0.00000000                0.00015650                0.00000000                0.00107092               -0.00093038
               5.00000000                1.00000000                0.00000000                1.00000000                0.00000000               -0.00000000               -0.00075790               -0.00000000                0.00119901                0.00024715
               6.00000000                1.00000000                0.00000000                1.00000000                0.00000000                0.00000000                0.00844882               -0.00000000                0.00569763                0.00416411
               7.00000000                1.00000000                0.00000000                1.00000000                0.00000000               -0.00000000                0.04459124               -0.00000000                0.00748128                0.01541371
               8.00000000                1.00000000                0.00000000                1.00000000                0.00000000               -0.00000000                0.07982530                0.00000000               -0.00638528                0.02555443
               9.00000000                1.00000000                0.00000000                1.00000000               -0.00000000                0.00000000                0.09069313               -0.00000000               -0.02933650                0.02767855
              10.00000000                1.00000000                0.00000000                1.00000000                0.00000000               -0.00000000                0.10669688               -0.00000000               -0.06277135                0.02982522
               0.00000000                2.00000000                0.00000000                1.00000000               -0.00000000                0.00000000                0.04874856               -0.00000000                0.03007502               -0.00512166
               1.00000000                2.00000000                0.00000000                1.00000000                0.00000000               -0.00000000                0.01576898                0.00000000                0.00774417                0.00296147
               2.00000000                2.00000000                0.00000000                1.00000000               -0.00000000               -0.00000000               -0.00286838                0.00000000                0.00350244                0.00319243
               3.00000000                2.00000000                0.00000000                1.00000000               -0.00000000               -0.00000000                0.00075326               -0.00000000                0.00152073                0.00079854
               4.00000000                2.00000000                0.00000000                1.00000000                0.00000000               -0.00000000               -0.00012524               -0.00000000                0.00065883                0.00002864
               5.00000000                2.00000000                0.00000000                1.00000000               -0.00000000                0.00000000                0.00031759               -0.00000000                0.00016557               -0.00019515
               6.00000000                2.00000000                0.00000000                1.00000000                0.00000000               -0.00000000               -0.00115767                0.00000000               -0.00038775                0.00102869
               7.00000000                2.00000000                0.00000000                1.00000000                0.00000000                0.00000000                0.00510959               -0.00000000                0.00110903                0.00149008
               8.00000000                2.00000000                0.00000000                1.00000000               -0.00000000               -0.00000000                0.03691790               -0.00000000               -0.00655742               -0.00091130
               9.00000000                2.00000000                0.00000000                1.00000000                0.00000000                0.00000000                0.06935984               -0.00000000               -0.02753542                0.00382082
              10.00000000                2.00000000                0.00000000                1.00000000               -0.00000000               -0.00000000                0.10409454               -0.00000000               -0.06147133                0.00342976
               0.00000000                3.00000000                0.00000000                1.00000000                0.00000000                0.00000000               -0.00232958                0.00000000                0.00225595               -0.00288672
               1.00000000                3.00000000                0.00000000                1.00000000                0.00000000               -0.00000000               -0.00109832               -0.00000000                0.00181022                0.00259244
               2.00000000                3.00000000                0.00000000                1.00000000               -0.00000000                0.00000000                0.00076990               -0.00000000                0.00093349                0.00159549
               3.00000000                3.00000000                0.00000000                1.00000000                0.00000000               -0.00000000               -0.00013181                0.00000000                0.00069910                0.00068177
               4.00000000                3.00000000                0.00000000                1.00000000               -0.00000000               -0.00000000                0.00008124                0.00000000                0.00027414                0.00013543
               5.00000000                3.00000000                0.00000000                1.00000000               -0.00000000               -0.00000000               -0.00004902                0.00000000               -0.00008528                0.00010873
               6.00000000                3.00000000                0.00000000                1.00000000               -0.00000000                0.00000000                0.00018091               -0.00000000               -0.00023914                0.00025120
               7.00000000                3.00000000                0.00000000                1.00000000                0.00000000                0.00000000                0.00050896                0.00000000               -0.00134813                0.00036680
               8.00000000                3.00000000                0.00000000                1.00000000               -0.00000000               -0.00000000               -0.00596206               -0.00000000               -0.00373752                0.00141889
               9.00000000                3.00000000                0.00000000                1.00000000               -0.00000000               -0.00000000                0.02268398               -0.00000000               -0.01182789               -0.00426541
              10.00000000                3.00000000                0.00000000                1.00000000                0.00000000                0.00000000                0.07111674                0.00000000               -0.04485842               -0.01839614
               0.00000000                4.00000000                0.00000000                1.00000000               -0.00000000                0.00000000                0.00043444                0.00000000               -0.00062141                0.00197174
               1.00000000                4.00000000                0.00000000                1.00000000                0.00000000               -0.00000000                0.00025100               -0.00000000               -0.00098860                0.00128463
               2.00000000                4.00000000                0.00000000                1.00000000               -0.00000000               -0.00000000               -0.00022755                0.00000000                0.00008657                0.00077062
               3.00000000                4.00000000                0.00000000                1.00000000                0.00000000                0.00000000                0.00011608               -0.00000000                0.00011609                0.00034508
               4.00000000                4.00000000                0.00000000                1.00000000               -0.00000000                0.00000000               -0.00001283               -0.00000000                0.00009059                0.00012352
               5.00000000                4.00000000                0.00000000                1.00000000               -0.00000000               -0.00000000                0.00002813               -0.00000000               -0.00003961                0.00006924
               6.00000000                4.00000000                0.00000000                1.00000000                0.00000000                0.00000000                0.00003753                0.00000000               -0.00025607                0.00014312
               7.00000000                4.00000000                0.00000000                1.00000000                0.00000000                0.00000000               -0.00017086                0.00000000               -0.00056234                0.00051256
               8.00000000                4.00000000                0.00000000                1.00000000                0.00000000                0.00000000                0.00120234               -0.00000000               -0.00089204                0.00088420
               9.00000000                4.00000000                0.00000000                1.00000000                0.00000000               -0.00000000               -0.00180600                0.00000000               -0.00238541                0.00039420
              10.00000000                4.00000000                0.00000000                1.00000000                0.00000000                0.00000000               -0.00305593                0.00000000               -0.00461146               -0.00902764
               0.00000000                5.00000000                0.00000000                1.00000000               -0.00000000                0.00000000               -0.00308507                0.00000000                0.00406450                0.01005037
               1.00000000                5.00000000                0.00000000                1.00000000               -0.00000000                0.00000000               -0.00200279               -0.00000000                0.00123947                0.00200402
               2.00000000                5.00000000                0.00000000                1.00000000                0.00000000               -0.00000000                0.00094836                0.00000000               -0.00025823                0.00051473
               3.00000000                5.00000000                0.00000000                1.00000000               -0.00000000                0.00000000               -0.00024435               -0.00000000                0.00007674                0.00003690
               4.00000000                5.00000000                0.00000000                1.00000000                0.00000000                0.00000000                0.00006686                0.00000000               -0.00000446                0.00004198
               5.00000000                5.00000000                0.00000000                1.00000000                0.00000000                0.00000000                0.00000354               -0.00000000               -0.00004304               -0.00000627
               6.00000000                5.00000000                0.00000000                1.00000000               -0.00000000               -0.00000000                0.00000975               -0.00000000               -0.00012681                0.00004145
               7.00000000                5.00000000                0.00000000                1.00000000                0.00000000                0.00000000                0.00008300               -0.00000000               -0.00015891                0.00012468
               8.00000000                5.00000000                0.00000000                1.00000000               -0.00000000                0.00000000               -0.00013978                0.00000000               -0.00007676                0.00028550
               9.00000000                5.00000000                0.00000000                1.00000000               -0.00000000                0.00000000                0.00016587               -0.00000000                0.00066897               -0.00026035
              10.00000000                5.00000000                0.00000000                1.00000000               -0.00000000                0.00000000                0.00024649               -0.00000000                0.00054651               -0.00242931
               0.00000000                6.00000000                0.00000000                1.00000000                0.00000000                0.00000000                0.06229420               -0.00000000                0.03637892                0.02536254
               1.00000000                6.00000000                0.00000000                1.00000000               -0.00000000                0.00000000                0.02211857                0.00000000                0.00555356                0.00948494
               2.00000000                6.00000000                0.00000000                1.00000000                0.00000000                0.00000000               -0.00447749               -0.00000000                0.00114626                0.00031459
               3.00000000                6.00000000                0.00000000                1.00000000                0.00000000               -0.00000000                0.00089941               -0.00000000               -0.00007386                0.00016703
               4.00000000                6.00000000                0.00000000                1.00000000               -0.00000000                0.00000000               -0.00011022                0.00000000                0.00001938               -0.00021318
               5.00000000                6.00000000                0.00000000                1.00000000               -0.00000000               -0.00000000                0.00003131               -0.00000000               -0.00000979               -0.00010037
               6.00000000                6.00000000                0.00000000                1.00000000                0.00000000                0.00000000                0.00002372               -0.00000000               -0.00012651               -0.00011917
               7.00000000                6.00000000                0.00000000                1.00000000                0.00000000               -0.00000000                0.00001240               -0.00000000               -0.00019568               -0.00026533
               8.00000000                6.00000000                0.00000000                1.00000000               -0.00000000               -0.00000000                0.00007826                0.00000000                0.00007704               -0.00049506
               9.00000000                6.00000000                0.00000000                1.00000000                0.00000000               -0.00000000                0.00001165               -0.00000000                0.00042012               -0.00069576
              10.00000000                6.00000000                0.00000000                1.00000000                0.00000000                0.00000000               -0.00036975                0.00000000                0.00052477               -0.00088591
               0.00000000                7.00000000                0.00000000                1.00000000               -0.00000000                0.00000000                0.09131043               -0.00000000                0.05016782                0.01292444
               1.00000000                7.00000000                0.00000000                1.00000000                0.00000000               -0.00000000                0.05757026                0.00000000                0.01593855                0.00671811
               2.00000000                7.00000000                0.00000000                1.00000000               -0.00000000                0.00000000                0.02001951                0.00000000               -0.00062610                0.00337906
               3.00000000                7.00000000                0.00000000                1.00000000                0.00000000               -0.00000000               -0.00151392                0.00000000               -0.00032944               -0.00142456
               4.00000000                7.00000000                0.00000000                1.00000000                0.00000000               -0.00000000                0.00012388                0.00000000                0.00032366               -0.00047208
               5.00000000                7.00000000                0.00000000                1.00000000                0.00000000                0.00000000                0.00002986               -0.00000000                0.00007860               -0.00019202
               6.00000000                7.00000000                0.00000000                1.00000000               -0.00000000               -0.00000000                0.00002051                0.00000000               -0.00026838               -0.00021089
               7.00000000                7.00000000                0.00000000                1.00000000                0.00000000                0.00000000                0.00009946               -0.00000000               -0.00067011               -0.00068543
               8.00000000                7.00000000                0.00000000                1.00000000               -0.00000000                0.00000000               -0.00002261               -0.00000000               -0.00086776               -0.00180975
               9.00000000                7.00000000                0.00000000                1.00000000                0.00000000                0.00000000                0.00032460                0.00000000                0.00033759               -0.00224416
              10.00000000                7.00000000                0.00000000                1.00000000               -0.00000000               -0.00000000                0.00034029               -0.00000000                0.00111768               -0.00052099
               0.00000000                8.00000000                0.00000000                1.00000000               -0.00000000               -0.00000000                0.09852632               -0.00000000                0.05751840               -0.00137910
               1.00000000                8.00000000                0.00000000                1.00000000                0.00000000                0.00000000                0.07484508                0.00000000                0.02278919               -0.00669869
               2.00000000                8.00000000                0.00000000                1.00000000               -0.00000000               -0.00000000                0.03959508                0.00000000                0.00065835               -0.00741541
               3.00000000                8.00000000                0.00000000                1.00000000               -0.00000000               -0.00000000               -0.00454968                0.00000000                0.00121900               -0.00304653
               4.00000000                8.00000000                0.00000000                1.00000000                0.00000000               -0.00000000                0.00073637                0.00000000                0.00090785               -0.00098183
               5.00000000                8.00000000                0.00000000                1.00000000               -0.00000000               -0.00000000               -0.00005459                0.00000000                0.00030449               -0.00012715
               6.00000000                8.00000000                0.00000000                1.00000000                0.00000000               -0.00000000                0.00006945               -0.00000000               -0.00046235                0.00001358
               7.00000000                8.00000000                0.00000000                1.00000000                0.00000000                0.00000000               -0.00001980                0.00000000               -0.00177651               -0.00088898
               8.00000000                8.00000000                0.00000000                1.00000000                0.00000000                0.00000000                0.00103680               -0.00000000               -0.00356211               -0.00356421
               9.00000000                8.00000000                0.00000000                1.00000000               -0.00000000               -0.00000000               -0.00166919                0.00000000               -0.00520763               -0.00797572
              10.00000000                8.00000000                0.00000000                1.00000000               -0.00000000                0.00000000               -0.00428419               -0.00000000               -0.00361297                0.00039965
               0.00000000                9.00000000                0.00000000                1.00000000                0.00000000                0.00000000                0.10856964               -0.00000000                0.06415844               -0.02225009
               1.00000000                9.00000000                0.00000000                1.00000000                0.00000000               -0.00000000                0.08178038                0.00000000                0.02910323               -0.02569231
               2.00000000                9.00000000                0.00000000                1.00000000                0.00000000                0.00000000                0.05163424                0.00000000                0.00770860               -0.02190257
               3.00000000                9.00000000                0.00000000                1.00000000               -0.00000000                0.00000000                0.00905711               -0.00000000                0.00089123               -0.00799306
               4.00000000                9.00000000                0.00000000                1.00000000               -0.00000000                0.00000000               -0.00052586                0.00000000                0.00147111               -0.00159798
               5.00000000                9.00000000                0.00000000                1.00000000               -0.00000000                0.00000000                0.00007704                0.00000000                0.00000568                0.00047863
               6.00000000                9.00000000                0.00000000                1.00000000               -0.00000000               -0.00000000                0.00002943               -0.00000000               -0.00053087                0.00031984
               7.00000000                9.00000000                0.00000000                1.00000000               -0.00000000               -0.00000000                0.00032711               -0.00000000               -0.00217686                0.00032099
               8.00000000                9.00000000                0.00000000                1.00000000               -0.00000000               -0.00000000               -0.00166682                0.00000000               -0.00794112               -0.00515179
               9.00000000                9.00000000                0.00000000                1.00000000               -0.00000000               -0.00000000                0.03102947                0.00000000               -0.01746678               -0.01727891
              10.00000000                9.00000000                0.00000000                1.00000000                0.00000000                0.00000000                0.09328944                0.00000000               -0.05275851               -0.01159491
               0.00000000               10.00000000                0.00000000                1.00000000               -0.00000000               -0.00000000                0.12895584                0.00000000                0.06788801               -0.05836685
               1.00000000               10.00000000                0.00000000                1.00000000                0.00000000                0.00000000                0.10181101               -0.00000000                0.03182611               -0.05701188
               2.00000000               10.00000000                0.00000000                1.00000000               -0.00000000               -0.00000000                0.08320628               -0.00000000                0.00760026               -0.05289583
               3.00000000               10.00000000                0.00000000                1.00000000                0.00000000               -0.00000000                0.03934569                0.00000000               -0.01088253               -0.03049789