TITLE="results for TO code"
VARIABLES = "x", "y", "z", "density", "sigmaxx", "sigmayy", "sigmazz", "sigmaxy", "sigmaxz", "sigmayz"
ZONE T="load step 1", NODES= 12221, ELEMENTS= 10000, DATAPACKING=POINT, ZONETYPE=FEBRICK
               0.00000000                0.00000000                0.00000000                1.00000000               -0.00000000               -0.00000000                0.09680518               -0.00000000                0.04200784                0.04456533
               1.00000000                0.00000000                0.00000000                1.00000000                0.00000000                0.00000000                0.07879777               -0.00000000                0.01363749                0.04098962
               2.00000000                0.00000000                0.00000000                1.00000000               -0.00000000               -0.00000000                0.04587456                0.00000000               -0.00644778                0.02789890
               3.00000000                0.00000000                0.00000000                1.00000000                0.00000000                0.00000000               -0.00228908               -0.00000000               -0.00299718                0.00179875
               4.00000000                0.00000000                0.00000000                1.00000000                0.00000000                0.00000000                0.00015606                0.00000000                0.00120110               -0.00059509
               5.00000000                0.00000000                0.00000000                1.00000000                0.00000000               -0.00000000               -0.00142750                0.00000000                0.00736617                0.00169863
               6.00000000                0.00000000                0.00000000                1.00000000               -0.00000000               -0.00000000                0.03142828               -0.00000000                0.02158149                0.02571489
               7.00000000                0.00000000                0.00000000                1.00000000               -0.00000000                0.00000000                0.08537737                0.00000000                0.01732644                0.05388674
               8.00000000                0.00000000                0.00000000                1.00000000                0.00000000               -0.00000000                0.10495630               -0.00000000               -0.00106857                0.06275294
               9.00000000                0.00000000                0.00000000                1.00000000                0.00000000                0.00000000                0.11029672               -0.00000000               -0.02480279                0.06456913
              10.00000000                0.00000000                0.00000000                1.00000000                0.00000000                0.00000000                0.13164091               -0.00000000               -0.06192168                0.06790345
               0.00000000                1.00000000                0.00000000                1.00000000                0.00000000               -0.00000000                0.07989402                0.00000000                0.04144407                0.01579736
               1.00000000                1.00000000                0.00000000                1.00000000               -0.00000000               -0.00000000                0.04873645               -0.00000000                0.01521548                0.01447320
               2.00000000                1.00000000                0.00000000                1.00000000                0.00000000                0.00000000                0.01539053                0.00000000                0.00298285                0.00598169
               3.00000000                1.00000000                0.00000000                1.00000000                0.00000000               -0.00000000               -0.00108237                0.00000000                0.00226411                0.00157600
               4.00000000                1.00000000                0.00000000                1.00000000                0.00000000                0.00000000                0.00016150               -0.00000000                0.00106554               -0.00093783
               5.00000000                1.00000000                0.00000000                1.00000000               -0.00000000                0.00000000               -0.00082564                0.00000000                0.00121099                0.00029312
               6.00000000                1.00000000                0.00000000                1.00000000               -0.00000000                0.00000000                0.00920842                0.00000000                0.00583552                0.00425643
               7.00000000                1.00000000                0.00000000                1.00000000                0.00000000               -0.00000000                0.04433559               -0.00000000                0.00715183                0.01546371
               8.00000000                1.00000000                0.00000000                1.00000000                0.00000000                0.00000000                0.07936357               -0.00000000               -0.00654122                0.02563066
               9.00000000                1.00000000                0.00000000                1.00000000               -0.00000000               -0.00000000                0.09097887               -0.00000000               -0.02955748                0.02775513
              10.00000000                1.00000000                0.00000000                1.00000000               -0.00000000               -0.00000000                0.10757655               -0.00000000               -0.06323846                0.02978035
               0.00000000                2.00000000                0.00000000                1.00000000               -0.00000000                0.00000000                0.04832224                0.00000000                0.02991657               -0.00509622
               1.00000000                2.00000000                0.00000000                1.00000000                0.00000000               -0.00000000                0.01561988               -0.00000000                0.00767995                0.00290637
               2.00000000                2.00000000                0.00000000                1.00000000               -0.00000000                0.00000000               -0.00284144               -0.00000000                0.00347049                0.00314695
               3.00000000                2.00000000                0.00000000                1.00000000                0.00000000               -0.00000000                0.00074623                0.00000000                0.00149878                0.00077786
               4.00000000                2.00000000                0.00000000                1.00000000               -0.00000000               -0.00000000               -0.00012766               -0.00000000                0.00064337                0.00002537
               5.00000000                2.00000000                0.00000000                1.00000000               -0.00000000                0.00000000                0.00033485                0.00000000                0.00014921               -0.00019332
               6.00000000                2.00000000                0.00000000                1.00000000                0.00000000               -0.00000000               -0.00116899               -0.00000000               -0.00049149                0.00105629
               7.00000000                2.00000000                0.00000000                1.00000000               -0.00000000                0.00000000                0.00451522                0.00000000                0.00092802                0.00173036
               8.00000000                2.00000000                0.00000000                1.00000000                0.00000000               -0.00000000                0.03635598               -0.00000000               -0.00650220               -0.00071534
               9.00000000                2.00000000                0.00000000                1.00000000               -0.00000000               -0.00000000                0.06941200                0.00000000               -0.02756853                0.00385724
              10.00000000                2.00000000                0.00000000                1.00000000                0.00000000                0.00000000                0.10463050               -0.00000000               -0.06168144                0.00325982
               0.00000000                3.00000000                0.00000000                1.00000000                0.00000000                0.00000000               -0.00230697               -0.00000000                0.00223472               -0.00285541
               1.00000000                3.00000000                0.00000000                1.00000000               -0.00000000                0.00000000               -0.00108843                0.00000000                0.00179496                0.00257802
               2.00000000                3.00000000                0.00000000                1.00000000               -0.00000000                0.00000000                0.00076250               -0.00000000                0.00091955                0.00157347
               3.00000000                3.00000000                0.00000000                1.00000000               -0.00000000               -0.00000000               -0.00013079               -0.00000000                0.00068914                0.00066885
               4.00000000                3.00000000                0.00000000                1.00000000               -0.00000000                0.00000000                0.00008170               -0.00000000                0.00026519                0.00013046
               5.00000000                3.00000000                0.00000000                1.00000000                0.00000000               -0.00000000               -0.00004870               -0.00000000               -0.00010530                0.00011556
               6.00000000                3.00000000                0.00000000                1.00000000               -0.00000000                0.00000000                0.00017432                0.00000000               -0.00027342                0.00029471
               7.00000000                3.00000000                0.00000000                1.00000000                0.00000000                0.00000000                0.00057370                0.00000000               -0.00135501                0.00044920
               8.00000000                3.00000000                0.00000000                1.00000000                0.00000000               -0.00000000               -0.00589970                0.00000000               -0.00373637                0.00149480
               9.00000000                3.00000000                0.00000000                1.00000000                0.00000000                0.00000000                0.02265418               -0.00000000               -0.01178348               -0.00422794
              10.00000000                3.00000000                0.00000000                1.00000000               -0.00000000               -0.00000000                0.07128896                0.00000000               -0.04486944               -0.01855203
               0.00000000                4.00000000                0.00000000                1.00000000                0.00000000               -0.00000000                0.00044415                0.00000000               -0.00063430                0.00202370
               1.00000000                4.00000000                0.00000000                1.00000000               -0.00000000                0.00000000                0.00024792               -0.00000000               -0.00100310                0.00128314
               2.00000000                4.00000000                0.00000000                1.00000000               -0.00000000                0.00000000               -0.00022628               -0.00000000                0.00008246                0.00075104
               3.00000000                4.00000000                0.00000000                1.00000000                0.00000000                0.00000000                0.00011596                0.00000000                0.00011572                0.00033038
               4.00000000                4.00000000                0.00000000                1.00000000                0.00000000               -0.00000000               -0.00001213                0.00000000                0.00008866                0.00011743
               5.00000000                4.00000000                0.00000000                1.00000000               -0.00000000                0.00000000                0.00002859                0.00000000               -0.00004506                0.00007366
               6.00000000                4.00000000                0.00000000                1.00000000                0.00000000               -0.00000000                0.00004098               -0.00000000               -0.00026167                0.00015784
               7.00000000                4.00000000                0.00000000                1.00000000                0.00000000                0.00000000               -0.00017510                0.00000000               -0.00056583                0.00053494
               8.00000000                4.00000000                0.00000000                1.00000000               -0.00000000                0.00000000                0.00119689               -0.00000000               -0.00088208                0.00090463
               9.00000000                4.00000000                0.00000000                1.00000000                0.00000000               -0.00000000               -0.00179660                0.00000000               -0.00236619                0.00039640
              10.00000000                4.00000000                0.00000000                1.00000000               -0.00000000                0.00000000               -0.00308516               -0.00000000               -0.00459641               -0.00905610
               0.00000000                5.00000000                0.00000000                1.00000000                0.00000000                0.00000000               -0.00321208                0.00000000                0.00417330                0.01027813
               1.00000000                5.00000000                0.00000000                1.00000000               -0.00000000               -0.00000000               -0.00201308               -0.00000000                0.00126513                0.00199465
               2.00000000                5.00000000                0.00000000                1.00000000               -0.00000000                0.00000000                0.00095067               -0.00000000               -0.00024038                0.00047409
               3.00000000                5.00000000                0.00000000                1.00000000               -0.00000000                0.00000000               -0.00024022               -0.00000000                0.00009133                0.00000792
               4.00000000                5.00000000                0.00000000                1.00000000                0.00000000               -0.00000000                0.00006730               -0.00000000                0.00000652                0.00002956
               5.00000000                5.00000000                0.00000000                1.00000000               -0.00000000                0.00000000                0.00000447                0.00000000               -0.00003926               -0.00000732
               6.00000000                5.00000000                0.00000000                1.00000000               -0.00000000               -0.00000000                0.00000994               -0.00000000               -0.00012648                0.00004558
               7.00000000                5.00000000                0.00000000                1.00000000               -0.00000000               -0.00000000                0.00008410               -0.00000000               -0.00015759                0.00013078
               8.00000000                5.00000000                0.00000000                1.00000000                0.00000000                0.00000000               -0.00013852                0.00000000               -0.00007310                0.00028978
               9.00000000                5.00000000                0.00000000                1.00000000                0.00000000                0.00000000                0.00016434                0.00000000                0.00067539               -0.00026193
              10.00000000                5.00000000                0.00000000                1.00000000               -0.00000000                0.00000000                0.00024652               -0.00000000                0.00055381               -0.00243265
               0.00000000                6.00000000                0.00000000                1.00000000               -0.00000000               -0.00000000                0.06422095               -0.00000000                0.03723910                0.02588867
               1.00000000                6.00000000                0.00000000                1.00000000                0.00000000                0.00000000                0.02247890                0.00000000                0.00579845                0.00953176
               2.00000000                6.00000000                0.00000000                1.00000000                0.00000000               -0.00000000               -0.00443159               -0.00000000                0.00121965                0.00019924
               3.00000000                6.00000000                0.00000000                1.00000000               -0.00000000                0.00000000                0.00088975               -0.00000000               -0.00000439                0.00010653
               4.00000000                6.00000000                0.00000000                1.00000000               -0.00000000                0.00000000               -0.00010586               -0.00000000                0.00004885               -0.00022696
               5.00000000                6.00000000                0.00000000                1.00000000               -0.00000000               -0.00000000                0.00003192                0.00000000               -0.00000019               -0.00010310
               6.00000000                6.00000000                0.00000000                1.00000000               -0.00000000               -0.00000000                0.00002421                0.00000000               -0.00012356               -0.00011883
               7.00000000                6.00000000                0.00000000                1.00000000                0.00000000                0.00000000                0.00001265               -0.00000000               -0.00019473               -0.00026465
               8.00000000                6.00000000                0.00000000                1.00000000               -0.00000000                0.00000000                0.00007838                0.00000000                0.00007795               -0.00049593
               9.00000000                6.00000000                0.00000000                1.00000000               -0.00000000               -0.00000000                0.00001215                0.00000000                0.00042184               -0.00069832
              10.00000000                6.00000000                0.00000000                1.00000000               -0.00000000                0.00000000               -0.00037135               -0.00000000                0.00052644               -0.00088806
               0.00000000                7.00000000                0.00000000                1.00000000               -0.00000000               -0.00000000                0.09370379               -0.00000000                0.05128317                0.01307285
               1.00000000                7.00000000                0.00000000                1.00000000               -0.00000000               -0.00000000                0.05785044                0.00000000                0.01646186                0.00669083
               2.00000000                7.00000000                0.00000000                1.00000000               -0.00000000                0.00000000                0.01941703               -0.00000000               -0.00019024                0.00315060
               3.00000000                7.00000000                0.00000000                1.00000000               -0.00000000               -0.00000000               -0.00145688                0.00000000               -0.00016403               -0.00145241
               4.00000000                7.00000000                0.00000000                1.00000000                0.00000000               -0.00000000                0.00012536               -0.00000000                0.00036796               -0.00047800
               5.00000000                7.00000000                0.00000000                1.00000000               -0.00000000                0.00000000                0.00003045               -0.00000000                0.00009250               -0.00019236
               6.00000000                7.00000000                0.00000000                1.00000000                0.00000000                0.00000000                0.00002108               -0.00000000               -0.00026565               -0.00021104
               7.00000000                7.00000000                0.00000000                1.00000000               -0.00000000               -0.00000000                0.00009986                0.00000000               -0.00067059               -0.00068775
               8.00000000                7.00000000                0.00000000                1.00000000                0.00000000               -0.00000000               -0.00002251                0.00000000               -0.00086871               -0.00181376
               9.00000000                7.00000000                0.00000000                1.00000000                0.00000000                0.00000000                0.00032534               -0.00000000                0.00033521               -0.00225201
              10.00000000                7.00000000                0.00000000                1.00000000               -0.00000000                0.00000000                0.00034338               -0.00000000                0.00112208               -0.00052892
               0.00000000                8.00000000                0.00000000                1.00000000               -0.00000000               -0.00000000                0.10063741               -0.00000000                0.05864817               -0.00161416
               1.00000000                8.00000000                0.00000000                1.00000000                0.00000000               -0.00000000                0.07497871                0.00000000                0.02330156               -0.00673880
               2.00000000                8.00000000                0.00000000                1.00000000               -0.00000000               -0.00000000                0.03847874               -0.00000000                0.00123934               -0.00735309
               3.00000000                8.00000000                0.00000000                1.00000000               -0.00000000                0.00000000               -0.00438076                0.00000000                0.00139488               -0.00300710
               4.00000000                8.00000000                0.00000000                1.00000000               -0.00000000                0.00000000                0.00071435                0.00000000                0.00096135               -0.00096383
               5.00000000                8.00000000                0.00000000                1.00000000               -0.00000000                0.00000000               -0.00005011               -0.00000000                0.00031242               -0.00012013
               6.00000000                8.00000000                0.00000000                1.00000000                0.00000000               -0.00000000                0.00006950                0.00000000               -0.00045978                0.00001093
               7.00000000                8.00000000                0.00000000                1.00000000                0.00000000                0.00000000               -0.00001956                0.00000000               -0.00177860               -0.00089198
               8.00000000                8.00000000                0.00000000                1.00000000                0.00000000                0.00000000                0.00103988                0.00000000               -0.00357189               -0.00357636
               9.00000000                8.00000000                0.00000000                1.00000000               -0.00000000                0.00000000               -0.00167450               -0.00000000               -0.00521267               -0.00799221
              10.00000000                8.00000000                0.00000000                1.00000000               -0.00000000               -0.00000000               -0.00430389                0.00000000               -0.00363380                0.00037575
               0.00000000                9.00000000                0.00000000                1.00000000                0.00000000                0.00000000                0.11053620                0.00000000                0.06495491               -0.02291898
               1.00000000                9.00000000                0.00000000                1.00000000               -0.00000000               -0.00000000                0.08180173               -0.00000000                0.02933523               -0.02570633
               2.00000000                9.00000000                0.00000000                1.00000000                0.00000000                0.00000000                0.05040231                0.00000000                0.00800621               -0.02147190
               3.00000000                9.00000000                0.00000000                1.00000000               -0.00000000                0.00000000                0.00865350               -0.00000000                0.00113066               -0.00781725
               4.00000000                9.00000000                0.00000000                1.00000000                0.00000000               -0.00000000               -0.00048988               -0.00000000                0.00148801               -0.00150565
               5.00000000                9.00000000                0.00000000                1.00000000               -0.00000000               -0.00000000                0.00007495                0.00000000                0.00001918                0.00047136
               6.00000000                9.00000000                0.00000000                1.00000000                0.00000000                0.00000000                0.00003049               -0.00000000               -0.00052437                0.00031761
               7.00000000                9.00000000                0.00000000                1.00000000               -0.00000000               -0.00000000                0.00032817               -0.00000000               -0.00218212                0.00031688
               8.00000000                9.00000000                0.00000000                1.00000000                0.00000000                0.00000000               -0.00167229               -0.00000000               -0.00795765               -0.00516250
               9.00000000                9.00000000                0.00000000                1.00000000               -0.00000000               -0.00000000                0.03112985                0.00000000               -0.01752086               -0.01734916
              10.00000000                9.00000000                0.00000000                1.00000000                0.00000000                0.00000000                0.09352683                0.00000000               -0.05268974               -0.01173727
               0.00000000               10.00000000                0.00000000                1.00000000                0.00000000                0.00000000                0.13100443               -0.00000000                0.06784241               -0.05965463
               1.00000000               10.00000000                0.00000000                1.00000000                0.00000000                0.00000000                0.10183977                0.00000000                0.03124179               -0.05701430
               2.00000000               10.00000000                0.00000000                1.00000000               -0.00000000               -0.00000000                0.08150967               -0.00000000                0.00726104               -0.05167122
               3.00000000               10.00000000                0.00000000                1.00000000                0.00000000               -0.00000000                0.03788824                0.00000000               -0.01046690               -0.02932468