TITLE="results for TO code"
VARIABLES = "x", "y", "z", "density", "sigmaxx", "sigmayy", "sigmazz", "sigmaxy", "sigmaxz", "sigmayz"
ZONE T="load step 1", NODES= 12221, ELEMENTS= 10000, DATAPACKING=POINT, ZONETYPE=FEBRICK
               0.00000000                0.00000000                0.00000000                1.00000000               -0.00000000                0.00000000                0.09368029                0.00000000                0.04094546                0.04319823
               1.00000000                0.00000000                0.00000000                1.00000000                0.00000000               -0.00000000                0.07547865                0.00000000                0.01368681                0.04013705
               2.00000000                0.00000000                0.00000000                1.00000000               -0.00000000                0.00000000                0.04254933               -0.00000000               -0.00635135                0.02690124
               3.00000000                0.00000000                0.00000000                1.00000000                0.00000000                0.00000000               -0.00209971                0.00000000               -0.00272652                0.00157814
               4.00000000                0.00000000                0.00000000                1.00000000               -0.00000000               -0.00000000                0.00020732               -0.00000000                0.00160648               -0.00059641
               5.00000000                0.00000000                0.00000000                1.00000000                0.00000000                0.00000000               -0.00204989                0.00000000                0.00874873                0.00263043
               6.00000000                0.00000000                0.00000000                1.00000000               -0.00000000                0.00000000                0.04486405               -0.00000000                0.02410065                0.03189314
               7.00000000                0.00000000                0.00000000                1.00000000               -0.00000000               -0.00000000                0.09108499                0.00000000                0.01534135                0.05566742
               8.00000000                0.00000000                0.00000000                1.00000000               -0.00000000               -0.00000000                0.10550834               -0.00000000               -0.00269203                0.06352290
               9.00000000                0.00000000                0.00000000                1.00000000                0.00000000                0.00000000                0.11178129                0.00000000               -0.02602171                0.06516731
              10.00000000                0.00000000                0.00000000                1.00000000               -0.00000000               -0.00000000                0.13460819                0.00000000               -0.06385196                0.06779220
               0.00000000                1.00000000                0.00000000                1.00000000               -0.00000000               -0.00000000                0.07707860               -0.00000000                0.04098259                0.01553438
               1.00000000                1.00000000                0.00000000                1.00000000               -0.00000000               -0.00000000                0.04713576               -0.00000000                0.01465036                0.01378032
               2.00000000                1.00000000                0.00000000                1.00000000                0.00000000                0.00000000                0.01431877                0.00000000                0.00275067                0.00542265
               3.00000000                1.00000000                0.00000000                1.00000000               -0.00000000               -0.00000000               -0.00102376               -0.00000000                0.00221174                0.00147656
               4.00000000                1.00000000                0.00000000                1.00000000                0.00000000                0.00000000                0.00020336                0.00000000                0.00107888               -0.00100190
               5.00000000                1.00000000                0.00000000                1.00000000                0.00000000               -0.00000000               -0.00139708               -0.00000000                0.00140831                0.00068657
               6.00000000                1.00000000                0.00000000                1.00000000                0.00000000               -0.00000000                0.01549443               -0.00000000                0.00725303                0.00507551
               7.00000000                1.00000000                0.00000000                1.00000000                0.00000000                0.00000000                0.04530430                0.00000000                0.00562150                0.01614527
               8.00000000                1.00000000                0.00000000                1.00000000                0.00000000                0.00000000                0.07676245                0.00000000               -0.00696503                0.02615415
               9.00000000                1.00000000                0.00000000                1.00000000               -0.00000000               -0.00000000                0.09066497               -0.00000000               -0.02980890                0.02799395
              10.00000000                1.00000000                0.00000000                1.00000000                0.00000000                0.00000000                0.10842190               -0.00000000               -0.06360262                0.02888483
               0.00000000                2.00000000                0.00000000                1.00000000               -0.00000000               -0.00000000                0.04587221                0.00000000                0.02930470               -0.00551190
               1.00000000                2.00000000                0.00000000                1.00000000               -0.00000000                0.00000000                0.01496050                0.00000000                0.00700275                0.00251590
               2.00000000                2.00000000                0.00000000                1.00000000                0.00000000               -0.00000000               -0.00268854               -0.00000000                0.00325159                0.00296611
               3.00000000                2.00000000                0.00000000                1.00000000               -0.00000000                0.00000000                0.00070506                0.00000000                0.00138366                0.00068856
               4.00000000                2.00000000                0.00000000                1.00000000               -0.00000000               -0.00000000               -0.00015334               -0.00000000                0.00057518                0.00002319
               5.00000000                2.00000000                0.00000000                1.00000000               -0.00000000                0.00000000                0.00049848                0.00000000                0.00010125               -0.00018745
               6.00000000                2.00000000                0.00000000                1.00000000                0.00000000                0.00000000               -0.00149317               -0.00000000               -0.00102876                0.00123297
               7.00000000                2.00000000                0.00000000                1.00000000                0.00000000               -0.00000000                0.00149915               -0.00000000                0.00019933                0.00298113
               8.00000000                2.00000000                0.00000000                1.00000000               -0.00000000                0.00000000                0.03315578                0.00000000               -0.00584768                0.00043302
               9.00000000                2.00000000                0.00000000                1.00000000                0.00000000                0.00000000                0.06753170                0.00000000               -0.02673264                0.00432965
              10.00000000                2.00000000                0.00000000                1.00000000                0.00000000               -0.00000000                0.10274322               -0.00000000               -0.06023778                0.00261869
               0.00000000                3.00000000                0.00000000                1.00000000                0.00000000                0.00000000               -0.00215850               -0.00000000                0.00205677               -0.00277007
               1.00000000                3.00000000                0.00000000                1.00000000                0.00000000                0.00000000               -0.00106682                0.00000000                0.00171861                0.00245272
               2.00000000                3.00000000                0.00000000                1.00000000               -0.00000000                0.00000000                0.00072690               -0.00000000                0.00081823                0.00145165
               3.00000000                3.00000000                0.00000000                1.00000000                0.00000000               -0.00000000               -0.00012968                0.00000000                0.00062834                0.00063048
               4.00000000                3.00000000                0.00000000                1.00000000               -0.00000000               -0.00000000                0.00008703               -0.00000000                0.00021327                0.00012055
               5.00000000                3.00000000                0.00000000                1.00000000                0.00000000               -0.00000000               -0.00006356               -0.00000000               -0.00021486                0.00016321
               6.00000000                3.00000000                0.00000000                1.00000000               -0.00000000                0.00000000                0.00017605                0.00000000               -0.00042623                0.00052440
               7.00000000                3.00000000                0.00000000                1.00000000                0.00000000                0.00000000                0.00087264                0.00000000               -0.00135562                0.00086418
               8.00000000                3.00000000                0.00000000                1.00000000                0.00000000               -0.00000000               -0.00543024               -0.00000000               -0.00361785                0.00186902
               9.00000000                3.00000000                0.00000000                1.00000000               -0.00000000                0.00000000                0.02134711               -0.00000000               -0.01110703               -0.00362046
              10.00000000                3.00000000                0.00000000                1.00000000                0.00000000               -0.00000000                0.06825245                0.00000000               -0.04273190               -0.01817015
               0.00000000                4.00000000                0.00000000                1.00000000               -0.00000000                0.00000000                0.00045901                0.00000000               -0.00056888                0.00218634
               1.00000000                4.00000000                0.00000000                1.00000000                0.00000000               -0.00000000                0.00027475               -0.00000000               -0.00100458                0.00127022
               2.00000000                4.00000000                0.00000000                1.00000000                0.00000000               -0.00000000               -0.00025044                0.00000000                0.00007471                0.00073524
               3.00000000                4.00000000                0.00000000                1.00000000               -0.00000000                0.00000000                0.00011980               -0.00000000                0.00008020                0.00032668
               4.00000000                4.00000000                0.00000000                1.00000000                0.00000000                0.00000000               -0.00001569               -0.00000000                0.00005136                0.00012854
               5.00000000                4.00000000                0.00000000                1.00000000                0.00000000               -0.00000000                0.00003262                0.00000000               -0.00008978                0.00011504
               6.00000000                4.00000000                0.00000000                1.00000000                0.00000000               -0.00000000                0.00005145               -0.00000000               -0.00029532                0.00023610
               7.00000000                4.00000000                0.00000000                1.00000000                0.00000000                0.00000000               -0.00018813                0.00000000               -0.00057338                0.00063913
               8.00000000                4.00000000                0.00000000                1.00000000                0.00000000               -0.00000000                0.00112991                0.00000000               -0.00081674                0.00100669
               9.00000000                4.00000000                0.00000000                1.00000000               -0.00000000                0.00000000               -0.00166020               -0.00000000               -0.00216112                0.00045920
              10.00000000                4.00000000                0.00000000                1.00000000                0.00000000                0.00000000               -0.00303847                0.00000000               -0.00425819               -0.00867491
               0.00000000                5.00000000                0.00000000                1.00000000               -0.00000000               -0.00000000               -0.00331906                0.00000000                0.00468890                0.01076522
               1.00000000                5.00000000                0.00000000                1.00000000                0.00000000                0.00000000               -0.00234461               -0.00000000                0.00150013                0.00220219
               2.00000000                5.00000000                0.00000000                1.00000000                0.00000000                0.00000000                0.00108104               -0.00000000               -0.00026361                0.00057743
               3.00000000                5.00000000                0.00000000                1.00000000               -0.00000000               -0.00000000               -0.00028006               -0.00000000                0.00006393                0.00005099
               4.00000000                5.00000000                0.00000000                1.00000000               -0.00000000               -0.00000000                0.00007312               -0.00000000               -0.00003178                0.00005986
               5.00000000                5.00000000                0.00000000                1.00000000                0.00000000                0.00000000                0.00000334               -0.00000000               -0.00006413                0.00001281
               6.00000000                5.00000000                0.00000000                1.00000000                0.00000000                0.00000000                0.00001091                0.00000000               -0.00014137                0.00007108
               7.00000000                5.00000000                0.00000000                1.00000000                0.00000000               -0.00000000                0.00008690               -0.00000000               -0.00015780                0.00015860
               8.00000000                5.00000000                0.00000000                1.00000000                0.00000000                0.00000000               -0.00012602                0.00000000               -0.00005775                0.00030486
               9.00000000                5.00000000                0.00000000                1.00000000                0.00000000                0.00000000                0.00015271                0.00000000                0.00067687               -0.00024313
              10.00000000                5.00000000                0.00000000                1.00000000               -0.00000000               -0.00000000                0.00022502               -0.00000000                0.00057618               -0.00231389
               0.00000000                6.00000000                0.00000000                1.00000000                0.00000000                0.00000000                0.06891531               -0.00000000                0.03943211                0.02629799
               1.00000000                6.00000000                0.00000000                1.00000000               -0.00000000                0.00000000                0.02551111                0.00000000                0.00621956                0.01061173
               2.00000000                6.00000000                0.00000000                1.00000000                0.00000000                0.00000000               -0.00508390               -0.00000000                0.00121913                0.00047745
               3.00000000                6.00000000                0.00000000                1.00000000                0.00000000                0.00000000                0.00100451                0.00000000               -0.00013635                0.00026703
               4.00000000                6.00000000                0.00000000                1.00000000                0.00000000                0.00000000               -0.00012830                0.00000000               -0.00001486               -0.00020117
               5.00000000                6.00000000                0.00000000                1.00000000               -0.00000000               -0.00000000                0.00003342               -0.00000000               -0.00002672               -0.00009185
               6.00000000                6.00000000                0.00000000                1.00000000                0.00000000                0.00000000                0.00002464                0.00000000               -0.00013772               -0.00011383
               7.00000000                6.00000000                0.00000000                1.00000000               -0.00000000                0.00000000                0.00001384               -0.00000000               -0.00020399               -0.00026784
               8.00000000                6.00000000                0.00000000                1.00000000               -0.00000000               -0.00000000                0.00007943               -0.00000000                0.00007456               -0.00050509
               9.00000000                6.00000000                0.00000000                1.00000000                0.00000000               -0.00000000                0.00001529               -0.00000000                0.00042283               -0.00069483
              10.00000000                6.00000000                0.00000000                1.00000000                0.00000000               -0.00000000               -0.00037558                0.00000000                0.00054291               -0.00086811
               0.00000000                7.00000000                0.00000000                1.00000000               -0.00000000               -0.00000000                0.09472637                0.00000000                0.05162769                0.01232866
               1.00000000                7.00000000                0.00000000                1.00000000               -0.00000000                0.00000000                0.06103523                0.00000000                0.01664821                0.00725414
               2.00000000                7.00000000                0.00000000                1.00000000                0.00000000                0.00000000                0.02193285               -0.00000000               -0.00091721                0.00416521
               3.00000000                7.00000000                0.00000000                1.00000000               -0.00000000               -0.00000000               -0.00171492               -0.00000000               -0.00050320               -0.00140738
               4.00000000                7.00000000                0.00000000                1.00000000                0.00000000                0.00000000                0.00013613                0.00000000                0.00028256               -0.00045899
               5.00000000                7.00000000                0.00000000                1.00000000                0.00000000               -0.00000000                0.00002919                0.00000000                0.00005926               -0.00019134
               6.00000000                7.00000000                0.00000000                1.00000000               -0.00000000                0.00000000                0.00002087               -0.00000000               -0.00028649               -0.00021532
               7.00000000                7.00000000                0.00000000                1.00000000               -0.00000000               -0.00000000                0.00010334               -0.00000000               -0.00069720               -0.00070732
               8.00000000                7.00000000                0.00000000                1.00000000                0.00000000               -0.00000000               -0.00002367                0.00000000               -0.00090201               -0.00186986
               9.00000000                7.00000000                0.00000000                1.00000000                0.00000000                0.00000000                0.00033829                0.00000000                0.00035099               -0.00231239
              10.00000000                7.00000000                0.00000000                1.00000000               -0.00000000               -0.00000000                0.00035097               -0.00000000                0.00115906               -0.00052089
               0.00000000                8.00000000                0.00000000                1.00000000               -0.00000000                0.00000000                0.09687513               -0.00000000                0.05680265               -0.00237667
               1.00000000                8.00000000                0.00000000                1.00000000                0.00000000               -0.00000000                0.07500833                0.00000000                0.02251707               -0.00653748
               2.00000000                8.00000000                0.00000000                1.00000000               -0.00000000               -0.00000000                0.04088766                0.00000000                0.00017393               -0.00722569
               3.00000000                8.00000000                0.00000000                1.00000000               -0.00000000                0.00000000               -0.00485058                0.00000000                0.00108387               -0.00302423
               4.00000000                8.00000000                0.00000000                1.00000000                0.00000000                0.00000000                0.00079583                0.00000000                0.00085235               -0.00099973
               5.00000000                8.00000000                0.00000000                1.00000000               -0.00000000                0.00000000               -0.00006512               -0.00000000                0.00028453               -0.00013206
               6.00000000                8.00000000                0.00000000                1.00000000                0.00000000               -0.00000000                0.00007278               -0.00000000               -0.00048607                0.00001251
               7.00000000                8.00000000                0.00000000                1.00000000                0.00000000                0.00000000               -0.00002158                0.00000000               -0.00184459               -0.00092198
               8.00000000                8.00000000                0.00000000                1.00000000               -0.00000000               -0.00000000                0.00107861                0.00000000               -0.00368669               -0.00369101
               9.00000000                8.00000000                0.00000000                1.00000000                0.00000000               -0.00000000               -0.00174218               -0.00000000               -0.00539518               -0.00825840
              10.00000000                8.00000000                0.00000000                1.00000000               -0.00000000                0.00000000               -0.00444455                0.00000000               -0.00372595                0.00044548
               0.00000000                9.00000000                0.00000000                1.00000000               -0.00000000               -0.00000000                0.10325651               -0.00000000                0.06135855               -0.02237249
               1.00000000                9.00000000                0.00000000                1.00000000                0.00000000                0.00000000                0.07824777               -0.00000000                0.02785660               -0.02494083
               2.00000000                9.00000000                0.00000000                1.00000000               -0.00000000               -0.00000000                0.05101609                0.00000000                0.00736363               -0.02161236
               3.00000000                9.00000000                0.00000000                1.00000000                0.00000000                0.00000000                0.01061516               -0.00000000                0.00034653               -0.00837559
               4.00000000                9.00000000                0.00000000                1.00000000                0.00000000                0.00000000               -0.00069783               -0.00000000                0.00136669               -0.00171113
               5.00000000                9.00000000                0.00000000                1.00000000                0.00000000               -0.00000000                0.00009434                0.00000000               -0.00000763                0.00046749
               6.00000000                9.00000000                0.00000000                1.00000000               -0.00000000                0.00000000                0.00002791               -0.00000000               -0.00055551                0.00033027
               7.00000000                9.00000000                0.00000000                1.00000000               -0.00000000               -0.00000000                0.00034103               -0.00000000               -0.00225872                0.00033419
               8.00000000                9.00000000                0.00000000                1.00000000                0.00000000               -0.00000000               -0.00174132               -0.00000000               -0.00823258               -0.00536055
               9.00000000                9.00000000                0.00000000                1.00000000               -0.00000000                0.00000000                0.03227064                0.00000000               -0.01803431               -0.01791445
              10.00000000                9.00000000                0.00000000                1.00000000                0.00000000               -0.00000000                0.09676560               -0.00000000               -0.05479484               -0.01184946
               0.00000000               10.00000000                0.00000000                1.00000000                0.00000000                0.00000000                0.11980712                0.00000000                0.06363768               -0.05577352
               1.00000000               10.00000000                0.00000000                1.00000000               -0.00000000                0.00000000                0.09434284                0.00000000                0.03015714               -0.05414775
               2.00000000               10.00000000                0.00000000                1.00000000               -0.00000000               -0.00000000                0.07999608                0.00000000                0.00756849               -0.05084589
               3.00000000               10.00000000                0.00000000                1.00000000               -0.00000000               -0.00000000                0.04145160               -0.00000000               -0.01061511               -0.03119645