TITLE="results for TO code"
VARIABLES = "x", "y", "z", "density", "sigmaxx", "sigmayy", "sigmazz", "sigmaxy", "sigmaxz", "sigmayz"
ZONE T="load step 1", NODES= 12221, ELEMENTS= 10000, DATAPACKING=POINT, ZONETYPE=FEBRICK
               0.00000000                0.00000000                0.00000000                1.00000000               -0.00000000                0.00000000                0.09770023                0.00000000                0.04246853                0.04486832
               1.00000000                0.00000000                0.00000000                1.00000000                0.00000000               -0.00000000                0.07962821                0.00000000                0.01379738                0.04134494
               2.00000000                0.00000000                0.00000000                1.00000000                0.00000000                0.00000000                0.04651272               -0.00000000               -0.00645992                0.02822080
               3.00000000                0.00000000                0.00000000                1.00000000                0.00000000               -0.00000000               -0.00231873                0.00000000               -0.00304346                0.00183949
               4.00000000                0.00000000                0.00000000                1.00000000               -0.00000000                0.00000000                0.00015135                0.00000000                0.00115191               -0.00059461
               5.00000000                0.00000000                0.00000000                1.00000000               -0.00000000                0.00000000               -0.00135021                0.00000000                0.00720452                0.00159089
               6.00000000                0.00000000                0.00000000                1.00000000               -0.00000000               -0.00000000                0.02977083                0.00000000                0.02128514                0.02494342
               7.00000000                0.00000000                0.00000000                1.00000000               -0.00000000                0.00000000                0.08502598                0.00000000                0.01769136                0.05382785
               8.00000000                0.00000000                0.00000000                1.00000000                0.00000000                0.00000000                0.10497163                0.00000000               -0.00079745                0.06268691
               9.00000000                0.00000000                0.00000000                1.00000000                0.00000000                0.00000000                0.10978238                0.00000000               -0.02452489                0.06434938
              10.00000000                0.00000000                0.00000000                1.00000000                0.00000000                0.00000000                0.13044529               -0.00000000               -0.06133318                0.06760093
               0.00000000                1.00000000                0.00000000                1.00000000               -0.00000000               -0.00000000                0.08061832               -0.00000000                0.04171837                0.01584060
               1.00000000                1.00000000                0.00000000                1.00000000               -0.00000000                0.00000000                0.04917181                0.00000000                0.01534013                0.01464384
               2.00000000                1.00000000                0.00000000                1.00000000               -0.00000000                0.00000000                0.01555481                0.00000000                0.00302702                0.00611675
               3.00000000                1.00000000                0.00000000                1.00000000                0.00000000               -0.00000000               -0.00108969               -0.00000000                0.00228962                0.00160506
               4.00000000                1.00000000                0.00000000                1.00000000                0.00000000                0.00000000                0.00015635                0.00000000                0.00107090               -0.00093012
               5.00000000                1.00000000                0.00000000                1.00000000                0.00000000               -0.00000000               -0.00075572                0.00000000                0.00119821                0.00024563
               6.00000000                1.00000000                0.00000000                1.00000000                0.00000000                0.00000000                0.00842527               -0.00000000                0.00569146                0.00416135
               7.00000000                1.00000000                0.00000000                1.00000000                0.00000000                0.00000000                0.04459031               -0.00000000                0.00748686                0.01541258
               8.00000000                1.00000000                0.00000000                1.00000000               -0.00000000               -0.00000000                0.07983283               -0.00000000               -0.00638358                0.02555360
               9.00000000                1.00000000                0.00000000                1.00000000               -0.00000000               -0.00000000                0.09069272                0.00000000               -0.02933399                0.02767990
              10.00000000                1.00000000                0.00000000                1.00000000                0.00000000                0.00000000                0.10669488               -0.00000000               -0.06276863                0.02982764
               0.00000000                2.00000000                0.00000000                1.00000000               -0.00000000                0.00000000                0.04875951                0.00000000                0.03007837               -0.00512155
               1.00000000                2.00000000                0.00000000                1.00000000                0.00000000               -0.00000000                0.01577282                0.00000000                0.00774607                0.00296302
               2.00000000                2.00000000                0.00000000                1.00000000               -0.00000000               -0.00000000               -0.00286913               -0.00000000                0.00350325                0.00319354
               3.00000000                2.00000000                0.00000000                1.00000000               -0.00000000               -0.00000000                0.00075346                0.00000000                0.00152126                0.00079908
               4.00000000                2.00000000                0.00000000                1.00000000                0.00000000               -0.00000000               -0.00012515               -0.00000000                0.00065914                0.00002872
               5.00000000                2.00000000                0.00000000                1.00000000               -0.00000000                0.00000000                0.00031705               -0.00000000                0.00016569               -0.00019510
               6.00000000                2.00000000                0.00000000                1.00000000                0.00000000                0.00000000               -0.00115711                0.00000000               -0.00038549                0.00102826
               7.00000000                2.00000000                0.00000000                1.00000000                0.00000000                0.00000000                0.00512644               -0.00000000                0.00111239                0.00148450
               8.00000000                2.00000000                0.00000000                1.00000000               -0.00000000                0.00000000                0.03692585               -0.00000000               -0.00656105               -0.00091311
               9.00000000                2.00000000                0.00000000                1.00000000               -0.00000000                0.00000000                0.06935433               -0.00000000               -0.02753468                0.00382240
              10.00000000                2.00000000                0.00000000                1.00000000                0.00000000               -0.00000000                0.10408794               -0.00000000               -0.06146806                0.00343254
               0.00000000                3.00000000                0.00000000                1.00000000                0.00000000                0.00000000               -0.00233019                0.00000000                0.00225656               -0.00288738
               1.00000000                3.00000000                0.00000000                1.00000000               -0.00000000                0.00000000               -0.00109855               -0.00000000                0.00181057                0.00259284
               2.00000000                3.00000000                0.00000000                1.00000000               -0.00000000               -0.00000000                0.00077010                0.00000000                0.00093386                0.00159606
               3.00000000                3.00000000                0.00000000                1.00000000                0.00000000               -0.00000000               -0.00013183                0.00000000                0.00069934                0.00068207
               4.00000000                3.00000000                0.00000000                1.00000000               -0.00000000               -0.00000000                0.00008123               -0.00000000                0.00027433                0.00013557
               5.00000000                3.00000000                0.00000000                1.00000000               -0.00000000               -0.00000000               -0.00004900               -0.00000000               -0.00008486                0.00010862
               6.00000000                3.00000000                0.00000000                1.00000000               -0.00000000               -0.00000000                0.00018112               -0.00000000               -0.00023850                0.00025024
               7.00000000                3.00000000                0.00000000                1.00000000                0.00000000                0.00000000                0.00050695                0.00000000               -0.00134839                0.00036524
               8.00000000                3.00000000                0.00000000                1.00000000                0.00000000               -0.00000000               -0.00596229               -0.00000000               -0.00373774                0.00141795
               9.00000000                3.00000000                0.00000000                1.00000000                0.00000000               -0.00000000                0.02268025                0.00000000               -0.01182874               -0.00426390
              10.00000000                3.00000000                0.00000000                1.00000000               -0.00000000                0.00000000                0.07110759                0.00000000               -0.04485480               -0.01839221
               0.00000000                4.00000000                0.00000000                1.00000000               -0.00000000                0.00000000                0.00043422                0.00000000               -0.00062126                0.00197055
               1.00000000                4.00000000                0.00000000                1.00000000               -0.00000000               -0.00000000                0.00025101               -0.00000000               -0.00098834                0.00128469
               2.00000000                4.00000000                0.00000000                1.00000000               -0.00000000                0.00000000               -0.00022754                0.00000000                0.00008664                0.00077100
               3.00000000                4.00000000                0.00000000                1.00000000               -0.00000000               -0.00000000                0.00011608               -0.00000000                0.00011613                0.00034536
               4.00000000                4.00000000                0.00000000                1.00000000                0.00000000                0.00000000               -0.00001284                0.00000000                0.00009065                0.00012364
               5.00000000                4.00000000                0.00000000                1.00000000               -0.00000000               -0.00000000                0.00002812                0.00000000               -0.00003949                0.00006914
               6.00000000                4.00000000                0.00000000                1.00000000               -0.00000000                0.00000000                0.00003744                0.00000000               -0.00025601                0.00014285
               7.00000000                4.00000000                0.00000000                1.00000000               -0.00000000               -0.00000000               -0.00017065               -0.00000000               -0.00056234                0.00051219
               8.00000000                4.00000000                0.00000000                1.00000000                0.00000000               -0.00000000                0.00120224               -0.00000000               -0.00089238                0.00088408
               9.00000000                4.00000000                0.00000000                1.00000000               -0.00000000                0.00000000               -0.00180567               -0.00000000               -0.00238543                0.00039462
              10.00000000                4.00000000                0.00000000                1.00000000                0.00000000               -0.00000000               -0.00305530                0.00000000               -0.00461108               -0.00902634
               0.00000000                5.00000000                0.00000000                1.00000000                0.00000000                0.00000000               -0.00308252               -0.00000000                0.00406162                0.01004547
               1.00000000                5.00000000                0.00000000                1.00000000               -0.00000000               -0.00000000               -0.00200204               -0.00000000                0.00123864                0.00200389
               2.00000000                5.00000000                0.00000000                1.00000000                0.00000000                0.00000000                0.00094812                0.00000000               -0.00025855                0.00051536
               3.00000000                5.00000000                0.00000000                1.00000000               -0.00000000                0.00000000               -0.00024437               -0.00000000                0.00007650                0.00003738
               4.00000000                5.00000000                0.00000000                1.00000000               -0.00000000               -0.00000000                0.00006685                0.00000000               -0.00000463                0.00004217
               5.00000000                5.00000000                0.00000000                1.00000000               -0.00000000                0.00000000                0.00000353                0.00000000               -0.00004309               -0.00000625
               6.00000000                5.00000000                0.00000000                1.00000000                0.00000000               -0.00000000                0.00000976               -0.00000000               -0.00012682                0.00004138
               7.00000000                5.00000000                0.00000000                1.00000000                0.00000000               -0.00000000                0.00008296               -0.00000000               -0.00015896                0.00012460
               8.00000000                5.00000000                0.00000000                1.00000000                0.00000000                0.00000000               -0.00013976                0.00000000               -0.00007683                0.00028549
               9.00000000                5.00000000                0.00000000                1.00000000               -0.00000000                0.00000000                0.00016585               -0.00000000                0.00066883               -0.00026023
              10.00000000                5.00000000                0.00000000                1.00000000               -0.00000000               -0.00000000                0.00024645               -0.00000000                0.00054645               -0.00242895
               0.00000000                6.00000000                0.00000000                1.00000000               -0.00000000               -0.00000000                0.06225090                0.00000000                0.03636008                0.02535262
               1.00000000                6.00000000                0.00000000                1.00000000               -0.00000000                0.00000000                0.02210672                0.00000000                0.00554819                0.00948258
               2.00000000                6.00000000                0.00000000                1.00000000                0.00000000               -0.00000000               -0.00447742               -0.00000000                0.00114484                0.00031636
               3.00000000                6.00000000                0.00000000                1.00000000                0.00000000                0.00000000                0.00089944               -0.00000000               -0.00007500                0.00016792
               4.00000000                6.00000000                0.00000000                1.00000000               -0.00000000               -0.00000000               -0.00011027                0.00000000                0.00001891               -0.00021297
               5.00000000                6.00000000                0.00000000                1.00000000               -0.00000000                0.00000000                0.00003130               -0.00000000               -0.00000994               -0.00010033
               6.00000000                6.00000000                0.00000000                1.00000000               -0.00000000                0.00000000                0.00002371                0.00000000               -0.00012655               -0.00011917
               7.00000000                6.00000000                0.00000000                1.00000000               -0.00000000               -0.00000000                0.00001240                0.00000000               -0.00019570               -0.00026532
               8.00000000                6.00000000                0.00000000                1.00000000               -0.00000000                0.00000000                0.00007825               -0.00000000                0.00007701               -0.00049501
               9.00000000                6.00000000                0.00000000                1.00000000                0.00000000               -0.00000000                0.00001165               -0.00000000                0.00042008               -0.00069566
              10.00000000                6.00000000                0.00000000                1.00000000               -0.00000000                0.00000000               -0.00036971                0.00000000                0.00052474               -0.00088578
               0.00000000                7.00000000                0.00000000                1.00000000               -0.00000000               -0.00000000                0.09126496               -0.00000000                0.05014732                0.01292337
               1.00000000                7.00000000                0.00000000                1.00000000               -0.00000000               -0.00000000                0.05756114                0.00000000                0.01592842                0.00671818
               2.00000000                7.00000000                0.00000000                1.00000000               -0.00000000               -0.00000000                0.02002798                0.00000000               -0.00063352                0.00338166
               3.00000000                7.00000000                0.00000000                1.00000000               -0.00000000                0.00000000               -0.00151469               -0.00000000               -0.00033209               -0.00142423
               4.00000000                7.00000000                0.00000000                1.00000000                0.00000000               -0.00000000                0.00012384                0.00000000                0.00032297               -0.00047205
               5.00000000                7.00000000                0.00000000                1.00000000                0.00000000               -0.00000000                0.00002985                0.00000000                0.00007840               -0.00019203
               6.00000000                7.00000000                0.00000000                1.00000000               -0.00000000               -0.00000000                0.00002050                0.00000000               -0.00026840               -0.00021088
               7.00000000                7.00000000                0.00000000                1.00000000                0.00000000                0.00000000                0.00009945               -0.00000000               -0.00067009               -0.00068537
               8.00000000                7.00000000                0.00000000                1.00000000                0.00000000                0.00000000               -0.00002260                0.00000000               -0.00086772               -0.00180963
               9.00000000                7.00000000                0.00000000                1.00000000               -0.00000000               -0.00000000                0.00032456                0.00000000                0.00033762               -0.00224395
              10.00000000                7.00000000                0.00000000                1.00000000               -0.00000000               -0.00000000                0.00034023               -0.00000000                0.00111758               -0.00052084
               0.00000000                8.00000000                0.00000000                1.00000000               -0.00000000               -0.00000000                0.09849344               -0.00000000                0.05749999               -0.00137325
               1.00000000                8.00000000                0.00000000                1.00000000               -0.00000000                0.00000000                0.07484273                0.00000000                0.02278055               -0.00669822
               2.00000000                8.00000000                0.00000000                1.00000000                0.00000000               -0.00000000                0.03961188               -0.00000000                0.00064899               -0.00741746
               3.00000000                8.00000000                0.00000000                1.00000000               -0.00000000                0.00000000               -0.00455236                0.00000000                0.00121625               -0.00304755
               4.00000000                8.00000000                0.00000000                1.00000000               -0.00000000               -0.00000000                0.00073674                0.00000000                0.00090709               -0.00098224
               5.00000000                8.00000000                0.00000000                1.00000000               -0.00000000                0.00000000               -0.00005466                0.00000000                0.00030441               -0.00012728
               6.00000000                8.00000000                0.00000000                1.00000000                0.00000000               -0.00000000                0.00006945                0.00000000               -0.00046237                0.00001363
               7.00000000                8.00000000                0.00000000                1.00000000                0.00000000                0.00000000               -0.00001979               -0.00000000               -0.00177643               -0.00088889
               8.00000000                8.00000000                0.00000000                1.00000000               -0.00000000               -0.00000000                0.00103667                0.00000000               -0.00356188               -0.00356392
               9.00000000                8.00000000                0.00000000                1.00000000               -0.00000000               -0.00000000               -0.00166889               -0.00000000               -0.00520738               -0.00797529
              10.00000000                8.00000000                0.00000000                1.00000000               -0.00000000                0.00000000               -0.00428370               -0.00000000               -0.00361246                0.00040005
               0.00000000                9.00000000                0.00000000                1.00000000               -0.00000000               -0.00000000                0.10854314               -0.00000000                0.06414831               -0.02223806
               1.00000000                9.00000000                0.00000000                1.00000000                0.00000000                0.00000000                0.08178300               -0.00000000                0.02910058               -0.02569273
               2.00000000                9.00000000                0.00000000                1.00000000               -0.00000000                0.00000000                0.05165580                0.00000000                0.00770436               -0.02191079
               3.00000000                9.00000000                0.00000000                1.00000000                0.00000000                0.00000000                0.00906437               -0.00000000                0.00088758               -0.00799689
               4.00000000                9.00000000                0.00000000                1.00000000                0.00000000                0.00000000               -0.00052645                0.00000000                0.00147100               -0.00159964
               5.00000000                9.00000000                0.00000000                1.00000000                0.00000000               -0.00000000                0.00007707                0.00000000                0.00000549                0.00047878
               6.00000000                9.00000000                0.00000000                1.00000000                0.00000000               -0.00000000                0.00002942               -0.00000000               -0.00053096                0.00031988
               7.00000000                9.00000000                0.00000000                1.00000000               -0.00000000                0.00000000                0.00032706                0.00000000               -0.00217671                0.00032106
               8.00000000                9.00000000                0.00000000                1.00000000                0.00000000                0.00000000               -0.00166651               -0.00000000               -0.00794068               -0.00515137
               9.00000000                9.00000000                0.00000000                1.00000000                0.00000000                0.00000000                0.03102541                0.00000000               -0.01746570               -0.01727737
              10.00000000                9.00000000                0.00000000                1.00000000                0.00000000               -0.00000000                0.09328182                0.00000000               -0.05275826               -0.01159211
               0.00000000               10.00000000                0.00000000                1.00000000                0.00000000                0.00000000                0.12893190               -0.00000000                0.06789411               -0.05834743
               1.00000000               10.00000000                0.00000000                1.00000000               -0.00000000               -0.00000000                0.10181735                0.00000000                0.03183818               -0.05701452
               2.00000000               10.00000000                0.00000000                1.00000000               -0.00000000                0.00000000                0.08324030               -0.00000000                0.00760662               -0.05291860
               3.00000000               10.00000000                0.00000000                1.00000000               -0.00000000               -0.00000000                0.03937354               -0.00000000               -0.01088988               -0.03051946