TITLE="results for TO code"
VARIABLES = "x", "y", "z", "density", "sigmaxx", "sigmayy", "sigmazz", "sigmaxy", "sigmaxz", "sigmayz"
ZONE T="load step 1", NODES= 12221, ELEMENTS= 10000, DATAPACKING=POINT, ZONETYPE=FEBRICK
               0.00000000                0.00000000                0.00000000                1.00000000               -0.00000000               -0.00000000                0.65868175               -0.00000000                0.25302365                0.43792195
               1.00000000                0.00000000                0.00000000                1.00000000                0.00000000                0.00000000                0.49596833                0.00000000                0.07298311                0.35862692
               2.00000000                0.00000000                0.00000000                1.00000000                0.00000000               -0.00000000                0.36694532               -0.00000000               -0.02134866                0.27810138
               3.00000000                0.00000000                0.00000000                1.00000000               -0.00000000               -0.00000000                0.24250843                0.00000000               -0.07403218                0.18849239
               4.00000000                0.00000000                0.00000000                1.00000000                0.00000000                0.00000000                0.12083251               -0.00000000               -0.10173611                0.09506376
               5.00000000                0.00000000                0.00000000                1.00000000                0.00000000                0.00000000               -0.00000000               -0.00000000               -0.11040522               -0.00000000
               6.00000000                0.00000000                0.00000000                1.00000000               -0.00000000                0.00000000               -0.12083251                0.00000000               -0.10173611               -0.09506376
               7.00000000                0.00000000                0.00000000                1.00000000               -0.00000000                0.00000000               -0.24250843               -0.00000000               -0.07403218               -0.18849240
               8.00000000                0.00000000                0.00000000                1.00000000                0.00000000                0.00000000               -0.36694532                0.00000000               -0.02134865               -0.27810138
               9.00000000                0.00000000                0.00000000                1.00000000               -0.00000000               -0.00000000               -0.49596833                0.00000000                0.07298311               -0.35862692
              10.00000000                0.00000000                0.00000000                1.00000000                0.00000000               -0.00000000               -0.65868175                0.00000000                0.25302365               -0.43792195
               0.00000000                1.00000000                0.00000000                1.00000000               -0.00000000               -0.00000000                0.54023177                0.00000000                0.30803746                0.26638022
               1.00000000                1.00000000                0.00000000                1.00000000                0.00000000                0.00000000                0.37999822                0.00000000                0.13260790                0.21553426
               2.00000000                1.00000000                0.00000000                1.00000000               -0.00000000               -0.00000000                0.27965681                0.00000000                0.04115452                0.16501666
               3.00000000                1.00000000                0.00000000                1.00000000                0.00000000                0.00000000                0.18336486               -0.00000000               -0.00913200                0.11198746
               4.00000000                1.00000000                0.00000000                1.00000000                0.00000000               -0.00000000                0.09102978               -0.00000000               -0.03534521                0.05653010
               5.00000000                1.00000000                0.00000000                1.00000000               -0.00000000               -0.00000000               -0.00000000                0.00000000               -0.04353291               -0.00000000
               6.00000000                1.00000000                0.00000000                1.00000000                0.00000000                0.00000000               -0.09102978               -0.00000000               -0.03534520               -0.05653010
               7.00000000                1.00000000                0.00000000                1.00000000                0.00000000                0.00000000               -0.18336486                0.00000000               -0.00913200               -0.11198746
               8.00000000                1.00000000                0.00000000                1.00000000               -0.00000000               -0.00000000               -0.27965681               -0.00000000                0.04115452               -0.16501666
               9.00000000                1.00000000                0.00000000                1.00000000               -0.00000000               -0.00000000               -0.37999822               -0.00000000                0.13260790               -0.21553426
              10.00000000                1.00000000                0.00000000                1.00000000                0.00000000                0.00000000               -0.54023176                0.00000000                0.30803746               -0.26638022
               0.00000000                2.00000000                0.00000000                1.00000000               -0.00000000                0.00000000                0.54592885               -0.00000000                0.35040837                0.17436275
               1.00000000                2.00000000                0.00000000                1.00000000                0.00000000                0.00000000                0.36806762                0.00000000                0.16566212                0.13984856
               2.00000000                2.00000000                0.00000000                1.00000000                0.00000000                0.00000000                0.26888646               -0.00000000                0.07336297                0.10619250
               3.00000000                2.00000000                0.00000000                1.00000000               -0.00000000               -0.00000000                0.17598010                0.00000000                0.02267888                0.07169975
               4.00000000                2.00000000                0.00000000                1.00000000               -0.00000000               -0.00000000                0.08731008                0.00000000               -0.00354396                0.03618432
               5.00000000                2.00000000                0.00000000                1.00000000               -0.00000000                0.00000000               -0.00000000               -0.00000000               -0.01169744               -0.00000000
               6.00000000                2.00000000                0.00000000                1.00000000               -0.00000000               -0.00000000               -0.08731008                0.00000000               -0.00354396               -0.03618432
               7.00000000                2.00000000                0.00000000                1.00000000                0.00000000                0.00000000               -0.17598011               -0.00000000                0.02267888               -0.07169975
               8.00000000                2.00000000                0.00000000                1.00000000               -0.00000000                0.00000000               -0.26888646                0.00000000                0.07336297               -0.10619250
               9.00000000                2.00000000                0.00000000                1.00000000               -0.00000000                0.00000000               -0.36806761                0.00000000                0.16566212               -0.13984856
              10.00000000                2.00000000                0.00000000                1.00000000                0.00000000               -0.00000000               -0.54592884                0.00000000                0.35040837               -0.17436275
               0.00000000                3.00000000                0.00000000                1.00000000                0.00000000                0.00000000                0.55383085                0.00000000                0.37441698                0.10762891
               1.00000000                3.00000000                0.00000000                1.00000000                0.00000000               -0.00000000                0.36482390                0.00000000                0.18546631                0.08660314
               2.00000000                3.00000000                0.00000000                1.00000000               -0.00000000                0.00000000                0.26476082                0.00000000                0.09212929                0.06524858
               3.00000000                3.00000000                0.00000000                1.00000000               -0.00000000                0.00000000                0.17278468                0.00000000                0.04105679                0.04383435
               4.00000000                3.00000000                0.00000000                1.00000000                0.00000000               -0.00000000                0.08565483               -0.00000000                0.01455709                0.02205819
               5.00000000                3.00000000                0.00000000                1.00000000                0.00000000                0.00000000               -0.00000000               -0.00000000                0.00631830               -0.00000000
               6.00000000                3.00000000                0.00000000                1.00000000                0.00000000               -0.00000000               -0.08565483                0.00000000                0.01455709               -0.02205819
               7.00000000                3.00000000                0.00000000                1.00000000               -0.00000000                0.00000000               -0.17278468                0.00000000                0.04105679               -0.04383435
               8.00000000                3.00000000                0.00000000                1.00000000                0.00000000               -0.00000000               -0.26476082               -0.00000000                0.09212929               -0.06524858
               9.00000000                3.00000000                0.00000000                1.00000000               -0.00000000               -0.00000000               -0.36482390                0.00000000                0.18546632               -0.08660314
              10.00000000                3.00000000                0.00000000                1.00000000                0.00000000               -0.00000000               -0.55383084                0.00000000                0.37441698               -0.10762891
               0.00000000                4.00000000                0.00000000                1.00000000                0.00000000               -0.00000000                0.56044653               -0.00000000                0.38748896                0.05156813
               1.00000000                4.00000000                0.00000000                1.00000000               -0.00000000                0.00000000                0.36494645                0.00000000                0.19573935                0.04163028
               2.00000000                4.00000000                0.00000000                1.00000000               -0.00000000               -0.00000000                0.26386198                0.00000000                0.10203137                0.03129875
               3.00000000                4.00000000                0.00000000                1.00000000                0.00000000                0.00000000                0.17187991                0.00000000                0.05075523                0.02094139
               4.00000000                4.00000000                0.00000000                1.00000000               -0.00000000               -0.00000000                0.08514535                0.00000000                0.02410213                0.01051551
               5.00000000                4.00000000                0.00000000                1.00000000                0.00000000                0.00000000               -0.00000000               -0.00000000                0.01579938               -0.00000000
               6.00000000                4.00000000                0.00000000                1.00000000               -0.00000000               -0.00000000               -0.08514536               -0.00000000                0.02410213               -0.01051551
               7.00000000                4.00000000                0.00000000                1.00000000                0.00000000                0.00000000               -0.17187992                0.00000000                0.05075523               -0.02094139
               8.00000000                4.00000000                0.00000000                1.00000000               -0.00000000                0.00000000               -0.26386198                0.00000000                0.10203137               -0.03129875
               9.00000000                4.00000000                0.00000000                1.00000000                0.00000000               -0.00000000               -0.36494645                0.00000000                0.19573935               -0.04163028
              10.00000000                4.00000000                0.00000000                1.00000000               -0.00000000                0.00000000               -0.56044652                0.00000000                0.38748896               -0.05156813
               0.00000000                5.00000000                0.00000000                1.00000000                0.00000000                0.00000000                0.56273124               -0.00000000                0.39162341               -0.00000000
               1.00000000                5.00000000                0.00000000                1.00000000               -0.00000000               -0.00000000                0.36514638                0.00000000                0.19895946               -0.00000000
               2.00000000                5.00000000                0.00000000                1.00000000                0.00000000                0.00000000                0.26368467                0.00000000                0.10510787               -0.00000000
               3.00000000                5.00000000                0.00000000                1.00000000               -0.00000000               -0.00000000                0.17165562                0.00000000                0.05379812               -0.00000000
               4.00000000                5.00000000                0.00000000                1.00000000                0.00000000                0.00000000                0.08501217               -0.00000000                0.02709847               -0.00000000
               5.00000000                5.00000000                0.00000000                1.00000000               -0.00000000               -0.00000000               -0.00000000               -0.00000000                0.01877756               -0.00000000
               6.00000000                5.00000000                0.00000000                1.00000000               -0.00000000                0.00000000               -0.08501217                0.00000000                0.02709847               -0.00000000
               7.00000000                5.00000000                0.00000000                1.00000000               -0.00000000               -0.00000000               -0.17165562                0.00000000                0.05379812               -0.00000000
               8.00000000                5.00000000                0.00000000                1.00000000               -0.00000000               -0.00000000               -0.26368468                0.00000000                0.10510787               -0.00000000
               9.00000000                5.00000000                0.00000000                1.00000000               -0.00000000                0.00000000               -0.36514637                0.00000000                0.19895946               -0.00000000
              10.00000000                5.00000000                0.00000000                1.00000000                0.00000000               -0.00000000               -0.56273123                0.00000000                0.39162341               -0.00000000
               0.00000000                6.00000000                0.00000000                1.00000000                0.00000000                0.00000000                0.56044653               -0.00000000                0.38748896               -0.05156813
               1.00000000                6.00000000                0.00000000                1.00000000                0.00000000               -0.00000000                0.36494645                0.00000000                0.19573935               -0.04163028
               2.00000000                6.00000000                0.00000000                1.00000000               -0.00000000               -0.00000000                0.26386197                0.00000000                0.10203137               -0.03129875
               3.00000000                6.00000000                0.00000000                1.00000000                0.00000000               -0.00000000                0.17187991                0.00000000                0.05075523               -0.02094139
               4.00000000                6.00000000                0.00000000                1.00000000                0.00000000               -0.00000000                0.08514535                0.00000000                0.02410213               -0.01051551
               5.00000000                6.00000000                0.00000000                1.00000000                0.00000000                0.00000000               -0.00000000               -0.00000000                0.01579938                0.00000000
               6.00000000                6.00000000                0.00000000                1.00000000               -0.00000000               -0.00000000               -0.08514536                0.00000000                0.02410213                0.01051551
               7.00000000                6.00000000                0.00000000                1.00000000               -0.00000000               -0.00000000               -0.17187992               -0.00000000                0.05075523                0.02094139
               8.00000000                6.00000000                0.00000000                1.00000000                0.00000000                0.00000000               -0.26386198                0.00000000                0.10203137                0.03129875
               9.00000000                6.00000000                0.00000000                1.00000000               -0.00000000               -0.00000000               -0.36494645                0.00000000                0.19573935                0.04163028
              10.00000000                6.00000000                0.00000000                1.00000000                0.00000000                0.00000000               -0.56044652                0.00000000                0.38748896                0.05156813
               0.00000000                7.00000000                0.00000000                1.00000000               -0.00000000               -0.00000000                0.55383085               -0.00000000                0.37441698               -0.10762891
               1.00000000                7.00000000                0.00000000                1.00000000               -0.00000000               -0.00000000                0.36482390                0.00000000                0.18546631               -0.08660314
               2.00000000                7.00000000                0.00000000                1.00000000                0.00000000               -0.00000000                0.26476082                0.00000000                0.09212929               -0.06524858
               3.00000000                7.00000000                0.00000000                1.00000000                0.00000000                0.00000000                0.17278468                0.00000000                0.04105679               -0.04383435
               4.00000000                7.00000000                0.00000000                1.00000000               -0.00000000               -0.00000000                0.08565483               -0.00000000                0.01455709               -0.02205819
               5.00000000                7.00000000                0.00000000                1.00000000                0.00000000                0.00000000               -0.00000000                0.00000000                0.00631830                0.00000000
               6.00000000                7.00000000                0.00000000                1.00000000                0.00000000                0.00000000               -0.08565483               -0.00000000                0.01455709                0.02205819
               7.00000000                7.00000000                0.00000000                1.00000000                0.00000000               -0.00000000               -0.17278468                0.00000000                0.04105679                0.04383435
               8.00000000                7.00000000                0.00000000                1.00000000                0.00000000                0.00000000               -0.26476082                0.00000000                0.09212929                0.06524858
               9.00000000                7.00000000                0.00000000                1.00000000               -0.00000000                0.00000000               -0.36482390                0.00000000                0.18546632                0.08660314
              10.00000000                7.00000000                0.00000000                1.00000000                0.00000000                0.00000000               -0.55383084                0.00000000                0.37441698                0.10762891
               0.00000000                8.00000000                0.00000000                1.00000000               -0.00000000               -0.00000000                0.54592885                0.00000000                0.35040837               -0.17436275
               1.00000000                8.00000000                0.00000000                1.00000000                0.00000000                0.00000000                0.36806762               -0.00000000                0.16566212               -0.13984856
               2.00000000                8.00000000                0.00000000                1.00000000               -0.00000000               -0.00000000                0.26888646                0.00000000                0.07336297               -0.10619250
               3.00000000                8.00000000                0.00000000                1.00000000               -0.00000000               -0.00000000                0.17598010                0.00000000                0.02267888               -0.07169975
               4.00000000                8.00000000                0.00000000                1.00000000               -0.00000000               -0.00000000                0.08731008                0.00000000               -0.00354396               -0.03618432
               5.00000000                8.00000000                0.00000000                1.00000000                0.00000000               -0.00000000               -0.00000000                0.00000000               -0.01169744                0.00000000
               6.00000000                8.00000000                0.00000000                1.00000000               -0.00000000               -0.00000000               -0.08731008               -0.00000000               -0.00354396                0.03618432
               7.00000000                8.00000000                0.00000000                1.00000000               -0.00000000                0.00000000               -0.17598011               -0.00000000                0.02267888                0.07169975
               8.00000000                8.00000000                0.00000000                1.00000000                0.00000000               -0.00000000               -0.26888646                0.00000000                0.07336297                0.10619250
               9.00000000                8.00000000                0.00000000                1.00000000               -0.00000000               -0.00000000               -0.36806761               -0.00000000                0.16566212                0.13984856
              10.00000000                8.00000000                0.00000000                1.00000000                0.00000000                0.00000000               -0.54592884                0.00000000                0.35040837                0.17436275
               0.00000000                9.00000000                0.00000000                1.00000000               -0.00000000                0.00000000                0.54023176                0.00000000                0.30803746               -0.26638022
               1.00000000                9.00000000                0.00000000                1.00000000                0.00000000               -0.00000000                0.37999822                0.00000000                0.13260790               -0.21553426
               2.00000000                9.00000000                0.00000000                1.00000000               -0.00000000                0.00000000                0.27965681               -0.00000000                0.04115452               -0.16501666
               3.00000000                9.00000000                0.00000000                1.00000000                0.00000000                0.00000000                0.18336485                0.00000000               -0.00913200               -0.11198746
               4.00000000                9.00000000                0.00000000                1.00000000                0.00000000               -0.00000000                0.09102977               -0.00000000               -0.03534520               -0.05653010
               5.00000000                9.00000000                0.00000000                1.00000000               -0.00000000                0.00000000               -0.00000000                0.00000000               -0.04353290                0.00000000
               6.00000000                9.00000000                0.00000000                1.00000000                0.00000000               -0.00000000               -0.09102978                0.00000000               -0.03534520                0.05653010
               7.00000000                9.00000000                0.00000000                1.00000000                0.00000000                0.00000000               -0.18336486               -0.00000000               -0.00913200                0.11198746
               8.00000000                9.00000000                0.00000000                1.00000000               -0.00000000               -0.00000000               -0.27965681               -0.00000000                0.04115452                0.16501666
               9.00000000                9.00000000                0.00000000                1.00000000                0.00000000                0.00000000               -0.37999821                0.00000000                0.13260790                0.21553426
              10.00000000                9.00000000                0.00000000                1.00000000               -0.00000000               -0.00000000               -0.54023176                0.00000000                0.30803746                0.26638022
               0.00000000               10.00000000                0.00000000                1.00000000                0.00000000               -0.00000000                0.65868174               -0.00000000                0.25302365               -0.43792195
               1.00000000               10.00000000                0.00000000                1.00000000               -0.00000000                0.00000000                0.49596833                0.00000000                0.07298310               -0.35862692
               2.00000000               10.00000000                0.00000000                1.00000000                0.00000000               -0.00000000                0.36694531                0.00000000               -0.02134866               -0.27810138
               3.00000000               10.00000000                0.00000000                1.00000000               -0.00000000               -0.00000000                0.24250842               -0.00000000               -0.07403218               -0.18849239