TITLE="results for TO code"
VARIABLES = "x", "y", "z", "density", "sigmaxx", "sigmayy", "sigmazz", "sigmaxy", "sigmaxz", "sigmayz"
ZONE T="load step 1", NODES= 12221, ELEMENTS= 10000, DATAPACKING=POINT, ZONETYPE=FEBRICK
               0.00000000                0.00000000                0.00000000                1.00000000                0.00000000               -0.00000000                0.65868173               -0.00000000                0.25302364                0.43792194
               1.00000000                0.00000000                0.00000000                1.00000000               -0.00000000                0.00000000                0.49596832                0.00000000                0.07298310                0.35862691
               2.00000000                0.00000000                0.00000000                1.00000000               -0.00000000               -0.00000000                0.36694531               -0.00000000               -0.02134865                0.27810137
               3.00000000                0.00000000                0.00000000                1.00000000               -0.00000000               -0.00000000                0.24250842                0.00000000               -0.07403217                0.18849239
               4.00000000                0.00000000                0.00000000                1.00000000                0.00000000                0.00000000                0.12083251               -0.00000000               -0.10173611                0.09506376
               5.00000000                0.00000000                0.00000000                1.00000000               -0.00000000               -0.00000000               -0.00000000               -0.00000000               -0.11040522               -0.00000000
               6.00000000                0.00000000                0.00000000                1.00000000               -0.00000000                0.00000000               -0.12083251                0.00000000               -0.10173611               -0.09506376
               7.00000000                0.00000000                0.00000000                1.00000000               -0.00000000               -0.00000000               -0.24250842               -0.00000000               -0.07403217               -0.18849239
               8.00000000                0.00000000                0.00000000                1.00000000                0.00000000               -0.00000000               -0.36694531                0.00000000               -0.02134865               -0.27810137
               9.00000000                0.00000000                0.00000000                1.00000000                0.00000000               -0.00000000               -0.49596832                0.00000000                0.07298310               -0.35862691
              10.00000000                0.00000000                0.00000000                1.00000000                0.00000000                0.00000000               -0.65868173                0.00000000                0.25302364               -0.43792194
               0.00000000                1.00000000                0.00000000                1.00000000               -0.00000000                0.00000000                0.54023175               -0.00000000                0.30803745                0.26638021
               1.00000000                1.00000000                0.00000000                1.00000000                0.00000000                0.00000000                0.37999822               -0.00000000                0.13260790                0.21553425
               2.00000000                1.00000000                0.00000000                1.00000000                0.00000000               -0.00000000                0.27965681                0.00000000                0.04115452                0.16501666
               3.00000000                1.00000000                0.00000000                1.00000000               -0.00000000                0.00000000                0.18336486               -0.00000000               -0.00913200                0.11198746
               4.00000000                1.00000000                0.00000000                1.00000000               -0.00000000               -0.00000000                0.09102978                0.00000000               -0.03534520                0.05653010
               5.00000000                1.00000000                0.00000000                1.00000000                0.00000000                0.00000000               -0.00000000               -0.00000000               -0.04353290               -0.00000000
               6.00000000                1.00000000                0.00000000                1.00000000                0.00000000               -0.00000000               -0.09102978               -0.00000000               -0.03534520               -0.05653010
               7.00000000                1.00000000                0.00000000                1.00000000                0.00000000                0.00000000               -0.18336486                0.00000000               -0.00913200               -0.11198746
               8.00000000                1.00000000                0.00000000                1.00000000               -0.00000000                0.00000000               -0.27965681                0.00000000                0.04115452               -0.16501666
               9.00000000                1.00000000                0.00000000                1.00000000                0.00000000                0.00000000               -0.37999822               -0.00000000                0.13260790               -0.21553425
              10.00000000                1.00000000                0.00000000                1.00000000               -0.00000000                0.00000000               -0.54023175                0.00000000                0.30803745               -0.26638021
               0.00000000                2.00000000                0.00000000                1.00000000               -0.00000000                0.00000000                0.54592884               -0.00000000                0.35040836                0.17436275
               1.00000000                2.00000000                0.00000000                1.00000000               -0.00000000               -0.00000000                0.36806762                0.00000000                0.16566211                0.13984856
               2.00000000                2.00000000                0.00000000                1.00000000               -0.00000000                0.00000000                0.26888647               -0.00000000                0.07336297                0.10619250
               3.00000000                2.00000000                0.00000000                1.00000000               -0.00000000               -0.00000000                0.17598011                0.00000000                0.02267888                0.07169975
               4.00000000                2.00000000                0.00000000                1.00000000                0.00000000                0.00000000                0.08731008               -0.00000000               -0.00354396                0.03618432
               5.00000000                2.00000000                0.00000000                1.00000000               -0.00000000                0.00000000               -0.00000000               -0.00000000               -0.01169744               -0.00000000
               6.00000000                2.00000000                0.00000000                1.00000000               -0.00000000                0.00000000               -0.08731008                0.00000000               -0.00354396               -0.03618432
               7.00000000                2.00000000                0.00000000                1.00000000               -0.00000000                0.00000000               -0.17598011               -0.00000000                0.02267888               -0.07169975
               8.00000000                2.00000000                0.00000000                1.00000000                0.00000000               -0.00000000               -0.26888647                0.00000000                0.07336297               -0.10619250
               9.00000000                2.00000000                0.00000000                1.00000000               -0.00000000               -0.00000000               -0.36806762                0.00000000                0.16566211               -0.13984856
              10.00000000                2.00000000                0.00000000                1.00000000                0.00000000                0.00000000               -0.54592884                0.00000000                0.35040836               -0.17436275
               0.00000000                3.00000000                0.00000000                1.00000000                0.00000000                0.00000000                0.55383084                0.00000000                0.37441697                0.10762891
               1.00000000                3.00000000                0.00000000                1.00000000               -0.00000000                0.00000000                0.36482390                0.00000000                0.18546631                0.08660314
               2.00000000                3.00000000                0.00000000                1.00000000               -0.00000000               -0.00000000                0.26476082               -0.00000000                0.09212929                0.06524858
               3.00000000                3.00000000                0.00000000                1.00000000                0.00000000               -0.00000000                0.17278468               -0.00000000                0.04105679                0.04383435
               4.00000000                3.00000000                0.00000000                1.00000000               -0.00000000               -0.00000000                0.08565483               -0.00000000                0.01455709                0.02205819
               5.00000000                3.00000000                0.00000000                1.00000000                0.00000000                0.00000000               -0.00000000                0.00000000                0.00631830               -0.00000000
               6.00000000                3.00000000                0.00000000                1.00000000                0.00000000               -0.00000000               -0.08565483               -0.00000000                0.01455709               -0.02205819
               7.00000000                3.00000000                0.00000000                1.00000000               -0.00000000                0.00000000               -0.17278468                0.00000000                0.04105679               -0.04383435
               8.00000000                3.00000000                0.00000000                1.00000000                0.00000000                0.00000000               -0.26476082                0.00000000                0.09212929               -0.06524858
               9.00000000                3.00000000                0.00000000                1.00000000               -0.00000000               -0.00000000               -0.36482390                0.00000000                0.18546631               -0.08660314
              10.00000000                3.00000000                0.00000000                1.00000000                0.00000000                0.00000000               -0.55383084                0.00000000                0.37441697               -0.10762891
               0.00000000                4.00000000                0.00000000                1.00000000               -0.00000000               -0.00000000                0.56044651                0.00000000                0.38748895                0.05156813
               1.00000000                4.00000000                0.00000000                1.00000000                0.00000000                0.00000000                0.36494645                0.00000000                0.19573935                0.04163028
               2.00000000                4.00000000                0.00000000                1.00000000               -0.00000000               -0.00000000                0.26386198                0.00000000                0.10203137                0.03129875
               3.00000000                4.00000000                0.00000000                1.00000000                0.00000000                0.00000000                0.17187992                0.00000000                0.05075523                0.02094139
               4.00000000                4.00000000                0.00000000                1.00000000                0.00000000                0.00000000                0.08514536                0.00000000                0.02410213                0.01051551
               5.00000000                4.00000000                0.00000000                1.00000000               -0.00000000               -0.00000000               -0.00000000               -0.00000000                0.01579938               -0.00000000
               6.00000000                4.00000000                0.00000000                1.00000000               -0.00000000               -0.00000000               -0.08514536                0.00000000                0.02410213               -0.01051551
               7.00000000                4.00000000                0.00000000                1.00000000               -0.00000000                0.00000000               -0.17187992               -0.00000000                0.05075523               -0.02094139
               8.00000000                4.00000000                0.00000000                1.00000000               -0.00000000               -0.00000000               -0.26386198                0.00000000                0.10203137               -0.03129875
               9.00000000                4.00000000                0.00000000                1.00000000                0.00000000                0.00000000               -0.36494645                0.00000000                0.19573935               -0.04163028
              10.00000000                4.00000000                0.00000000                1.00000000               -0.00000000               -0.00000000               -0.56044651                0.00000000                0.38748895               -0.05156813
               0.00000000                5.00000000                0.00000000                1.00000000                0.00000000                0.00000000                0.56273123                0.00000000                0.39162340                0.00000000
               1.00000000                5.00000000                0.00000000                1.00000000               -0.00000000               -0.00000000                0.36514638               -0.00000000                0.19895946                0.00000000
               2.00000000                5.00000000                0.00000000                1.00000000               -0.00000000                0.00000000                0.26368468                0.00000000                0.10510787               -0.00000000
               3.00000000                5.00000000                0.00000000                1.00000000               -0.00000000               -0.00000000                0.17165562                0.00000000                0.05379812               -0.00000000
               4.00000000                5.00000000                0.00000000                1.00000000                0.00000000               -0.00000000                0.08501217               -0.00000000                0.02709847               -0.00000000
               5.00000000                5.00000000                0.00000000                1.00000000                0.00000000               -0.00000000               -0.00000000                0.00000000                0.01877756               -0.00000000
               6.00000000                5.00000000                0.00000000                1.00000000               -0.00000000                0.00000000               -0.08501217               -0.00000000                0.02709847               -0.00000000
               7.00000000                5.00000000                0.00000000                1.00000000               -0.00000000               -0.00000000               -0.17165562                0.00000000                0.05379812               -0.00000000
               8.00000000                5.00000000                0.00000000                1.00000000                0.00000000               -0.00000000               -0.26368468                0.00000000                0.10510787                0.00000000
               9.00000000                5.00000000                0.00000000                1.00000000                0.00000000                0.00000000               -0.36514638               -0.00000000                0.19895946                0.00000000
              10.00000000                5.00000000                0.00000000                1.00000000               -0.00000000               -0.00000000               -0.56273123                0.00000000                0.39162340                0.00000000
               0.00000000                6.00000000                0.00000000                1.00000000               -0.00000000                0.00000000                0.56044651                0.00000000                0.38748895               -0.05156813
               1.00000000                6.00000000                0.00000000                1.00000000                0.00000000               -0.00000000                0.36494645                0.00000000                0.19573935               -0.04163028
               2.00000000                6.00000000                0.00000000                1.00000000               -0.00000000                0.00000000                0.26386198                0.00000000                0.10203137               -0.03129875
               3.00000000                6.00000000                0.00000000                1.00000000               -0.00000000                0.00000000                0.17187992                0.00000000                0.05075523               -0.02094139
               4.00000000                6.00000000                0.00000000                1.00000000               -0.00000000                0.00000000                0.08514536                0.00000000                0.02410213               -0.01051551
               5.00000000                6.00000000                0.00000000                1.00000000               -0.00000000                0.00000000                0.00000000               -0.00000000                0.01579938               -0.00000000
               6.00000000                6.00000000                0.00000000                1.00000000               -0.00000000               -0.00000000               -0.08514536               -0.00000000                0.02410213                0.01051551
               7.00000000                6.00000000                0.00000000                1.00000000               -0.00000000                0.00000000               -0.17187992                0.00000000                0.05075523                0.02094139
               8.00000000                6.00000000                0.00000000                1.00000000               -0.00000000                0.00000000               -0.26386198                0.00000000                0.10203137                0.03129875
               9.00000000                6.00000000                0.00000000                1.00000000                0.00000000               -0.00000000               -0.36494645                0.00000000                0.19573935                0.04163028
              10.00000000                6.00000000                0.00000000                1.00000000               -0.00000000                0.00000000               -0.56044651                0.00000000                0.38748895                0.05156813
               0.00000000                7.00000000                0.00000000                1.00000000                0.00000000                0.00000000                0.55383084               -0.00000000                0.37441697               -0.10762891
               1.00000000                7.00000000                0.00000000                1.00000000               -0.00000000               -0.00000000                0.36482390                0.00000000                0.18546631               -0.08660314
               2.00000000                7.00000000                0.00000000                1.00000000                0.00000000               -0.00000000                0.26476082                0.00000000                0.09212929               -0.06524858
               3.00000000                7.00000000                0.00000000                1.00000000               -0.00000000               -0.00000000                0.17278468                0.00000000                0.04105679               -0.04383435
               4.00000000                7.00000000                0.00000000                1.00000000                0.00000000               -0.00000000                0.08565483               -0.00000000                0.01455709               -0.02205819
               5.00000000                7.00000000                0.00000000                1.00000000               -0.00000000               -0.00000000                0.00000000               -0.00000000                0.00631830               -0.00000000
               6.00000000                7.00000000                0.00000000                1.00000000                0.00000000                0.00000000               -0.08565483                0.00000000                0.01455709                0.02205819
               7.00000000                7.00000000                0.00000000                1.00000000                0.00000000                0.00000000               -0.17278468               -0.00000000                0.04105679                0.04383435
               8.00000000                7.00000000                0.00000000                1.00000000                0.00000000                0.00000000               -0.26476082                0.00000000                0.09212929                0.06524858
               9.00000000                7.00000000                0.00000000                1.00000000               -0.00000000               -0.00000000               -0.36482390               -0.00000000                0.18546631                0.08660314
              10.00000000                7.00000000                0.00000000                1.00000000               -0.00000000               -0.00000000               -0.55383084                0.00000000                0.37441697                0.10762891
               0.00000000                8.00000000                0.00000000                1.00000000               -0.00000000               -0.00000000                0.54592884                0.00000000                0.35040836               -0.17436275
               1.00000000                8.00000000                0.00000000                1.00000000                0.00000000               -0.00000000                0.36806762                0.00000000                0.16566211               -0.13984856
               2.00000000                8.00000000                0.00000000                1.00000000               -0.00000000                0.00000000                0.26888647                0.00000000                0.07336297               -0.10619250
               3.00000000                8.00000000                0.00000000                1.00000000                0.00000000               -0.00000000                0.17598011                0.00000000                0.02267888               -0.07169975
               4.00000000                8.00000000                0.00000000                1.00000000               -0.00000000               -0.00000000                0.08731008               -0.00000000               -0.00354396               -0.03618432
               5.00000000                8.00000000                0.00000000                1.00000000                0.00000000                0.00000000                0.00000000                0.00000000               -0.01169744               -0.00000000
               6.00000000                8.00000000                0.00000000                1.00000000               -0.00000000               -0.00000000               -0.08731008               -0.00000000               -0.00354396                0.03618432
               7.00000000                8.00000000                0.00000000                1.00000000                0.00000000                0.00000000               -0.17598011               -0.00000000                0.02267888                0.07169975
               8.00000000                8.00000000                0.00000000                1.00000000               -0.00000000               -0.00000000               -0.26888647                0.00000000                0.07336297                0.10619250
               9.00000000                8.00000000                0.00000000                1.00000000                0.00000000               -0.00000000               -0.36806762               -0.00000000                0.16566211                0.13984856
              10.00000000                8.00000000                0.00000000                1.00000000                0.00000000                0.00000000               -0.54592884                0.00000000                0.35040836                0.17436275
               0.00000000                9.00000000                0.00000000                1.00000000                0.00000000               -0.00000000                0.54023175               -0.00000000                0.30803745               -0.26638021
               1.00000000                9.00000000                0.00000000                1.00000000               -0.00000000               -0.00000000                0.37999822                0.00000000                0.13260790               -0.21553425
               2.00000000                9.00000000                0.00000000                1.00000000                0.00000000               -0.00000000                0.27965681                0.00000000                0.04115452               -0.16501666
               3.00000000                9.00000000                0.00000000                1.00000000                0.00000000                0.00000000                0.18336486               -0.00000000               -0.00913200               -0.11198746
               4.00000000                9.00000000                0.00000000                1.00000000               -0.00000000               -0.00000000                0.09102978                0.00000000               -0.03534520               -0.05653010
               5.00000000                9.00000000                0.00000000                1.00000000               -0.00000000                0.00000000                0.00000000               -0.00000000               -0.04353290               -0.00000000
               6.00000000                9.00000000                0.00000000                1.00000000               -0.00000000                0.00000000               -0.09102978                0.00000000               -0.03534520                0.05653010
               7.00000000                9.00000000                0.00000000                1.00000000                0.00000000               -0.00000000               -0.18336486                0.00000000               -0.00913200                0.11198746
               8.00000000                9.00000000                0.00000000                1.00000000               -0.00000000               -0.00000000               -0.27965681               -0.00000000                0.04115452                0.16501666
               9.00000000                9.00000000                0.00000000                1.00000000                0.00000000                0.00000000               -0.37999822                0.00000000                0.13260790                0.21553425
              10.00000000                9.00000000                0.00000000                1.00000000               -0.00000000               -0.00000000               -0.54023175               -0.00000000                0.30803745                0.26638021
               0.00000000               10.00000000                0.00000000                1.00000000               -0.00000000                0.00000000                0.65868173                0.00000000                0.25302364               -0.43792194
               1.00000000               10.00000000                0.00000000                1.00000000                0.00000000                0.00000000                0.49596832                0.00000000                0.07298310               -0.35862691
               2.00000000               10.00000000                0.00000000                1.00000000                0.00000000               -0.00000000                0.36694531               -0.00000000               -0.02134865               -0.27810137
               3.00000000               10.00000000                0.00000000                1.00000000                0.00000000               -0.00000000                0.24250842               -0.00000000               -0.07403217               -0.18849239