TITLE="results for TO code"
VARIABLES = "x", "y", "z", "density", "sigmaxx", "sigmayy", "sigmazz", "sigmaxy", "sigmaxz", "sigmayz"
ZONE T="load step 1", NODES= 12221, ELEMENTS= 10000, DATAPACKING=POINT, ZONETYPE=FEBRICK
               0.00000000                0.00000000                0.00000000                1.00000000               -0.00000000                0.00000000                1.17553742                0.00000000                0.42569219                0.73771763
               1.00000000                0.00000000                0.00000000                1.00000000               -0.00000000               -0.00000000                0.80747674                0.00000000                0.08474355                0.57302409
               2.00000000                0.00000000                0.00000000                1.00000000               -0.00000000                0.00000000                0.52317227               -0.00000000               -0.06515601                0.39738403
               3.00000000                0.00000000                0.00000000                1.00000000                0.00000000                0.00000000                0.31771340               -0.00000000               -0.12868521                0.24265781
               4.00000000                0.00000000                0.00000000                1.00000000                0.00000000                0.00000000                0.12943852               -0.00000000               -0.15740450                0.09818322
               5.00000000                0.00000000                0.00000000                1.00000000                0.00000000                0.00000000               -0.05160383               -0.00000000               -0.16242210               -0.04293515
               6.00000000                0.00000000                0.00000000                1.00000000               -0.00000000               -0.00000000               -0.23121077               -0.00000000               -0.14574718               -0.18250493
               7.00000000                0.00000000                0.00000000                1.00000000               -0.00000000                0.00000000               -0.41422723                0.00000000               -0.10252994               -0.32121934
               8.00000000                0.00000000                0.00000000                1.00000000                0.00000000               -0.00000000               -0.60726814                0.00000000               -0.01835657               -0.45908843
               9.00000000                0.00000000                0.00000000                1.00000000               -0.00000000               -0.00000000               -0.81879340                0.00000000                0.14799579               -0.59152897
              10.00000000                0.00000000                0.00000000                1.00000000                0.00000000               -0.00000000               -1.15481255                0.00000000                0.50286384               -0.70601067
               0.00000000                1.00000000                0.00000000                1.00000000               -0.00000000               -0.00000000                0.85521521                0.00000000                0.49478331                0.39953045
               1.00000000                1.00000000                0.00000000                1.00000000                0.00000000                0.00000000                0.48088718               -0.00000000                0.18146176                0.29929226
               2.00000000                1.00000000                0.00000000                1.00000000                0.00000000               -0.00000000                0.26957430               -0.00000000                0.04401790                0.18950733
               3.00000000                1.00000000                0.00000000                1.00000000                0.00000000                0.00000000                0.15933108                0.00000000               -0.01922442                0.11306569
               4.00000000                1.00000000                0.00000000                1.00000000                0.00000000               -0.00000000                0.06390266                0.00000000               -0.04757458                0.04432409
               5.00000000                1.00000000                0.00000000                1.00000000               -0.00000000               -0.00000000               -0.02397114               -0.00000000               -0.05327010               -0.02168278
               6.00000000                1.00000000                0.00000000                1.00000000                0.00000000                0.00000000               -0.11088115                0.00000000               -0.03958861               -0.08687622
               7.00000000                1.00000000                0.00000000                1.00000000                0.00000000               -0.00000000               -0.20226380                0.00000000               -0.00256532               -0.15241291
               8.00000000                1.00000000                0.00000000                1.00000000                0.00000000                0.00000000               -0.30601097                0.00000000                0.07119926               -0.21913233
               9.00000000                1.00000000                0.00000000                1.00000000                0.00000000                0.00000000               -0.42516993                0.00000000                0.21170001               -0.29158615
              10.00000000                1.00000000                0.00000000                1.00000000               -0.00000000                0.00000000               -0.71881225                0.00000000                0.49691853               -0.33823332
               0.00000000                2.00000000                0.00000000                1.00000000               -0.00000000                0.00000000                0.80334880               -0.00000000                0.53167682                0.23889786
               1.00000000                2.00000000                0.00000000                1.00000000               -0.00000000               -0.00000000                0.38568811                0.00000000                0.20246560                0.17684731
               2.00000000                2.00000000                0.00000000                1.00000000                0.00000000                0.00000000                0.18846131                0.00000000                0.07376695                0.10631815
               3.00000000                2.00000000                0.00000000                1.00000000               -0.00000000                0.00000000                0.11003541                0.00000000                0.01704872                0.06196594
               4.00000000                2.00000000                0.00000000                1.00000000               -0.00000000               -0.00000000                0.04261550               -0.00000000               -0.00767573                0.02342467
               5.00000000                2.00000000                0.00000000                1.00000000                0.00000000                0.00000000               -0.01761431               -0.00000000               -0.01297400               -0.01316126
               6.00000000                2.00000000                0.00000000                1.00000000               -0.00000000               -0.00000000               -0.07690899                0.00000000               -0.00234146               -0.04924890
               7.00000000                2.00000000                0.00000000                1.00000000                0.00000000               -0.00000000               -0.14027685               -0.00000000                0.02775117               -0.08582773
               8.00000000                2.00000000                0.00000000                1.00000000               -0.00000000                0.00000000               -0.21471950                0.00000000                0.08978811               -0.12424237
               9.00000000                2.00000000                0.00000000                1.00000000                0.00000000               -0.00000000               -0.30391964               -0.00000000                0.21021943               -0.16415040
              10.00000000                2.00000000                0.00000000                1.00000000               -0.00000000                0.00000000               -0.59613306                0.00000000                0.48351653               -0.19147374
               0.00000000                3.00000000                0.00000000                1.00000000               -0.00000000               -0.00000000                0.80851721                0.00000000                0.55299201                0.14054250
               1.00000000                3.00000000                0.00000000                1.00000000                0.00000000               -0.00000000                0.37603686               -0.00000000                0.21744211                0.10369326
               2.00000000                3.00000000                0.00000000                1.00000000               -0.00000000                0.00000000                0.18370461               -0.00000000                0.08622085                0.06019916
               3.00000000                3.00000000                0.00000000                1.00000000               -0.00000000               -0.00000000                0.10632765                0.00000000                0.02871658                0.03435643
               4.00000000                3.00000000                0.00000000                1.00000000               -0.00000000               -0.00000000                0.04056322               -0.00000000                0.00374058                0.01242603
               5.00000000                3.00000000                0.00000000                1.00000000                0.00000000                0.00000000               -0.01837897                0.00000000               -0.00183167               -0.00821238
               6.00000000                3.00000000                0.00000000                1.00000000                0.00000000               -0.00000000               -0.07644583               -0.00000000                0.00830407               -0.02857123
               7.00000000                3.00000000                0.00000000                1.00000000               -0.00000000               -0.00000000               -0.13854366                0.00000000                0.03760286               -0.04938700
               8.00000000                3.00000000                0.00000000                1.00000000                0.00000000               -0.00000000               -0.21188810                0.00000000                0.09836028               -0.07121377
               9.00000000                3.00000000                0.00000000                1.00000000               -0.00000000                0.00000000               -0.30175297                0.00000000                0.22008235               -0.09350076
              10.00000000                3.00000000                0.00000000                1.00000000                0.00000000                0.00000000               -0.60837512                0.00000000                0.50333800               -0.11410565
               0.00000000                4.00000000                0.00000000                1.00000000                0.00000000               -0.00000000                0.81295459               -0.00000000                0.56389146                0.06333321
               1.00000000                4.00000000                0.00000000                1.00000000               -0.00000000                0.00000000                0.37127786                0.00000000                0.22426448                0.04740009
               2.00000000                4.00000000                0.00000000                1.00000000               -0.00000000               -0.00000000                0.17986157                0.00000000                0.09221923                0.02719018
               3.00000000                4.00000000                0.00000000                1.00000000                0.00000000                0.00000000                0.10356543                0.00000000                0.03414916                0.01515662
               4.00000000                4.00000000                0.00000000                1.00000000                0.00000000               -0.00000000                0.03876936                0.00000000                0.00886617                0.00509054
               5.00000000                4.00000000                0.00000000                1.00000000                0.00000000               -0.00000000               -0.01919961               -0.00000000                0.00314841               -0.00435771
               6.00000000                4.00000000                0.00000000                1.00000000                0.00000000               -0.00000000               -0.07634792                0.00000000                0.01324177               -0.01370946
               7.00000000                4.00000000                0.00000000                1.00000000               -0.00000000               -0.00000000               -0.13762845               -0.00000000                0.04258805               -0.02330624
               8.00000000                4.00000000                0.00000000                1.00000000                0.00000000                0.00000000               -0.21051809                0.00000000                0.10394397               -0.03335916
               9.00000000                4.00000000                0.00000000                1.00000000                0.00000000               -0.00000000               -0.30085803               -0.00000000                0.22807137               -0.04394086
              10.00000000                4.00000000                0.00000000                1.00000000               -0.00000000                0.00000000               -0.61631913                0.00000000                0.51783495               -0.05479932
               0.00000000                5.00000000                0.00000000                1.00000000               -0.00000000                0.00000000                0.81178451               -0.00000000                0.56490314               -0.00521213
               1.00000000                5.00000000                0.00000000                1.00000000                0.00000000               -0.00000000                0.36881102                0.00000000                0.22518792               -0.00225019
               2.00000000                5.00000000                0.00000000                1.00000000               -0.00000000                0.00000000                0.17799208                0.00000000                0.09330935               -0.00100503
               3.00000000                5.00000000                0.00000000                1.00000000                0.00000000               -0.00000000                0.10199787                0.00000000                0.03538337               -0.00073286
               4.00000000                5.00000000                0.00000000                1.00000000                0.00000000                0.00000000                0.03752376                0.00000000                0.01014484               -0.00069884
               5.00000000                5.00000000                0.00000000                1.00000000               -0.00000000               -0.00000000               -0.02017173                0.00000000                0.00447587               -0.00076541
               6.00000000                5.00000000                0.00000000                1.00000000               -0.00000000                0.00000000               -0.07708140               -0.00000000                0.01463856               -0.00090342
               7.00000000                5.00000000                0.00000000                1.00000000                0.00000000                0.00000000               -0.13818986                0.00000000                0.04415639               -0.00108926
               8.00000000                5.00000000                0.00000000                1.00000000                0.00000000               -0.00000000               -0.21104806                0.00000000                0.10597469               -0.00127914
               9.00000000                5.00000000                0.00000000                1.00000000                0.00000000               -0.00000000               -0.30172598               -0.00000000                0.23109661               -0.00148401
              10.00000000                5.00000000                0.00000000                1.00000000               -0.00000000               -0.00000000               -0.62050353                0.00000000                0.52338063               -0.00214672
               0.00000000                6.00000000                0.00000000                1.00000000                0.00000000                0.00000000                0.80405536                0.00000000                0.55676835               -0.07317219
               1.00000000                6.00000000                0.00000000                1.00000000               -0.00000000               -0.00000000                0.36691884                0.00000000                0.22066269               -0.05124230
               2.00000000                6.00000000                0.00000000                1.00000000                0.00000000               -0.00000000                0.17688381                0.00000000                0.09001211               -0.02862134
               3.00000000                6.00000000                0.00000000                1.00000000               -0.00000000               -0.00000000                0.10098650                0.00000000                0.03266947               -0.01612671
               4.00000000                6.00000000                0.00000000                1.00000000                0.00000000                0.00000000                0.03652563                0.00000000                0.00781335               -0.00609489
               5.00000000                6.00000000                0.00000000                1.00000000                0.00000000               -0.00000000               -0.02118867               -0.00000000                0.00236366                0.00309731
               6.00000000                6.00000000                0.00000000                1.00000000                0.00000000               -0.00000000               -0.07813538               -0.00000000                0.01264466                0.01203957
               7.00000000                6.00000000                0.00000000                1.00000000               -0.00000000               -0.00000000               -0.13928830               -0.00000000                0.04221045                0.02109850
               8.00000000                6.00000000                0.00000000                1.00000000               -0.00000000                0.00000000               -0.21213465                0.00000000                0.10406231                0.03063825
               9.00000000                6.00000000                0.00000000                1.00000000               -0.00000000                0.00000000               -0.30254069                0.00000000                0.22904898                0.04090808
              10.00000000                6.00000000                0.00000000                1.00000000                0.00000000                0.00000000               -0.61906914                0.00000000                0.52013917                0.05088208
               0.00000000                7.00000000                0.00000000                1.00000000                0.00000000               -0.00000000                0.78972379               -0.00000000                0.53833950               -0.14865544
               1.00000000                7.00000000                0.00000000                1.00000000                0.00000000               -0.00000000                0.36617084                0.00000000                0.20995944               -0.10527018
               2.00000000                7.00000000                0.00000000                1.00000000                0.00000000               -0.00000000                0.17677442                0.00000000                0.08162191               -0.05951880
               3.00000000                7.00000000                0.00000000                1.00000000               -0.00000000                0.00000000                0.10061435               -0.00000000                0.02553139               -0.03349100
               4.00000000                7.00000000                0.00000000                1.00000000                0.00000000               -0.00000000                0.03578530                0.00000000                0.00137646               -0.01202513
               5.00000000                7.00000000                0.00000000                1.00000000                0.00000000               -0.00000000               -0.02228568                0.00000000               -0.00369502                0.00781508
               6.00000000                7.00000000                0.00000000                1.00000000               -0.00000000                0.00000000               -0.07958695               -0.00000000                0.00673816                0.02719233
               7.00000000                7.00000000                0.00000000                1.00000000                0.00000000                0.00000000               -0.14106744                0.00000000                0.03626066                0.04690362
               8.00000000                7.00000000                0.00000000                1.00000000                0.00000000               -0.00000000               -0.21402425               -0.00000000                0.09757482                0.06750632
               9.00000000                7.00000000                0.00000000                1.00000000                0.00000000                0.00000000               -0.30370491                0.00000000                0.22123365                0.08948388
              10.00000000                7.00000000                0.00000000                1.00000000               -0.00000000                0.00000000               -0.61184828                0.00000000                0.50691204                0.11173526
               0.00000000                8.00000000                0.00000000                1.00000000                0.00000000                0.00000000                0.77258284               -0.00000000                0.50677065               -0.24349001
               1.00000000                8.00000000                0.00000000                1.00000000               -0.00000000                0.00000000                0.37095458                0.00000000                0.19005813               -0.17325688
               2.00000000                8.00000000                0.00000000                1.00000000               -0.00000000               -0.00000000                0.17975620                0.00000000                0.06635193               -0.10026733
               3.00000000                8.00000000                0.00000000                1.00000000               -0.00000000               -0.00000000                0.10186509                0.00000000                0.01212035               -0.05637809
               4.00000000                8.00000000                0.00000000                1.00000000               -0.00000000                0.00000000                0.03560828               -0.00000000               -0.01106199               -0.01975209
               5.00000000                8.00000000                0.00000000                1.00000000               -0.00000000               -0.00000000               -0.02375241               -0.00000000               -0.01548796                0.01432973
               6.00000000                8.00000000                0.00000000                1.00000000               -0.00000000               -0.00000000               -0.08231724                0.00000000               -0.00480483                0.04778453
               7.00000000                8.00000000                0.00000000                1.00000000               -0.00000000                0.00000000               -0.14510220               -0.00000000                0.02463430                0.08168185
               8.00000000                8.00000000                0.00000000                1.00000000               -0.00000000                0.00000000               -0.21913978                0.00000000                0.08559737                0.11746064
               9.00000000                8.00000000                0.00000000                1.00000000               -0.00000000               -0.00000000               -0.30858644                0.00000000                0.20577227                0.15481991
              10.00000000                8.00000000                0.00000000                1.00000000                0.00000000                0.00000000               -0.60156978                0.00000000                0.48100035                0.19179624
               0.00000000                9.00000000                0.00000000                1.00000000               -0.00000000               -0.00000000                0.75630504               -0.00000000                0.45172358               -0.38737234
               1.00000000                9.00000000                0.00000000                1.00000000                0.00000000                0.00000000                0.38710195                0.00000000                0.15800529               -0.27779215
               2.00000000                9.00000000                0.00000000                1.00000000               -0.00000000                0.00000000                0.18516480               -0.00000000                0.03732280               -0.16333981
               3.00000000                9.00000000                0.00000000                1.00000000                0.00000000               -0.00000000                0.10419007                0.00000000               -0.01519653               -0.09204792
               4.00000000                9.00000000                0.00000000                1.00000000               -0.00000000               -0.00000000                0.03570067               -0.00000000               -0.03632269               -0.03208842
               5.00000000                9.00000000                0.00000000                1.00000000                0.00000000                0.00000000               -0.02552511                0.00000000               -0.03955701                0.02466138
               6.00000000                9.00000000                0.00000000                1.00000000                0.00000000                0.00000000               -0.08593300                0.00000000               -0.02837953                0.08053199
               7.00000000                9.00000000                0.00000000                1.00000000               -0.00000000               -0.00000000               -0.15076010               -0.00000000                0.00109199                0.13700842
               8.00000000                9.00000000                0.00000000                1.00000000                0.00000000                0.00000000               -0.22740990                0.00000000                0.06224563                0.19546736
               9.00000000                9.00000000                0.00000000                1.00000000               -0.00000000                0.00000000               -0.31910862                0.00000000                0.18424477                0.26070749
              10.00000000                9.00000000                0.00000000                1.00000000               -0.00000000               -0.00000000               -0.58734156                0.00000000                0.44064017                0.31848606
               0.00000000               10.00000000                0.00000000                1.00000000                0.00000000                0.00000000                0.99464400               -0.00000000                0.36860808               -0.68422549
               1.00000000               10.00000000                0.00000000                1.00000000               -0.00000000               -0.00000000                0.61042645               -0.00000000                0.05522829               -0.49602396
               2.00000000               10.00000000                0.00000000                1.00000000               -0.00000000               -0.00000000                0.32565100                0.00000000               -0.05731835               -0.30418898
               3.00000000               10.00000000                0.00000000                1.00000000               -0.00000000                0.00000000                0.18665087               -0.00000000               -0.09431535               -0.17407772