TITLE="results for TO code"
VARIABLES = "x", "y", "z", "density", "sigmaxx", "sigmayy", "sigmazz", "sigmaxy", "sigmaxz", "sigmayz"
ZONE T="load step 1", NODES= 12221, ELEMENTS= 10000, DATAPACKING=POINT, ZONETYPE=FEBRICK
               0.00000000                0.00000000                0.00000000                1.00000000               -0.00000000               -0.00000000                2.80168588                0.00000000                0.45918706                1.69199707
               1.00000000                0.00000000                0.00000000                1.00000000                0.00000000                0.00000000                1.56843019               -0.00000000               -0.32439632                0.85732461
               2.00000000                0.00000000                0.00000000                1.00000000               -0.00000000               -0.00000000                0.09910671                0.00000000               -0.49349110               -0.05410541
               3.00000000                0.00000000                0.00000000                1.00000000                0.00000000                0.00000000               -0.81568940               -0.00000000               -0.18420007               -0.61494224
               4.00000000                0.00000000                0.00000000                1.00000000               -0.00000000               -0.00000000                0.00657749               -0.00000000                0.02775280               -0.08673848
               5.00000000                0.00000000                0.00000000                1.00000000                0.00000000               -0.00000000               -0.00716233               -0.00000000                0.02709861               -0.00404618
               6.00000000                0.00000000                0.00000000                1.00000000               -0.00000000                0.00000000                0.00869145                0.00000000                0.03282841                0.02262754
               7.00000000                0.00000000                0.00000000                1.00000000                0.00000000               -0.00000000                0.02733630               -0.00000000                0.03664377                0.09477573
               8.00000000                0.00000000                0.00000000                1.00000000               -0.00000000                0.00000000                0.24478013                0.00000000               -0.12233541                0.20851274
               9.00000000                0.00000000                0.00000000                1.00000000               -0.00000000               -0.00000000               -1.00405092               -0.00000000               -0.13002896               -0.57730766
              10.00000000                0.00000000                0.00000000                1.00000000                0.00000000                0.00000000               -2.47606666                0.00000000                0.47878146               -1.54630089
               0.00000000                1.00000000                0.00000000                1.00000000               -0.00000000                0.00000000                2.32259556               -0.00000000                0.98357641                0.87530235
               1.00000000                1.00000000                0.00000000                1.00000000               -0.00000000                0.00000000                1.13621126                0.00000000                0.25347283                0.38968136
               2.00000000                1.00000000                0.00000000                1.00000000                0.00000000                0.00000000                0.04361179               -0.00000000                0.02722815               -0.09501212
               3.00000000                1.00000000                0.00000000                1.00000000               -0.00000000                0.00000000               -0.29043365               -0.00000000                0.05583654               -0.21903545
               4.00000000                1.00000000                0.00000000                1.00000000                0.00000000                0.00000000                0.02131640                0.00000000               -0.02270180               -0.09321778
               5.00000000                1.00000000                0.00000000                1.00000000               -0.00000000               -0.00000000               -0.00297707                0.00000000                0.00121982               -0.00652079
               6.00000000                1.00000000                0.00000000                1.00000000                0.00000000                0.00000000                0.00085210               -0.00000000                0.01869943                0.01375014
               7.00000000                1.00000000                0.00000000                1.00000000                0.00000000               -0.00000000               -0.03116419                0.00000000                0.06699695                0.06795972
               8.00000000                1.00000000                0.00000000                1.00000000               -0.00000000               -0.00000000                0.24923199                0.00000000                0.26184643                0.10201888
               9.00000000                1.00000000                0.00000000                1.00000000                0.00000000                0.00000000               -0.87110111                0.00000000                0.44767285               -0.27135072
              10.00000000                1.00000000                0.00000000                1.00000000                0.00000000               -0.00000000               -2.25497715               -0.00000000                1.12812099               -0.80610654
               0.00000000                2.00000000                0.00000000                1.00000000                0.00000000                0.00000000                2.27623936               -0.00000000                1.18939457                0.40505961
               1.00000000                2.00000000                0.00000000                1.00000000               -0.00000000               -0.00000000                0.93236364               -0.00000000                0.44941253                0.15674358
               2.00000000                2.00000000                0.00000000                1.00000000               -0.00000000                0.00000000               -0.14754998                0.00000000                0.24544406               -0.09655813
               3.00000000                2.00000000                0.00000000                1.00000000               -0.00000000               -0.00000000               -0.11577363               -0.00000000                0.16616760               -0.07609984
               4.00000000                2.00000000                0.00000000                1.00000000               -0.00000000                0.00000000                0.00889447                0.00000000                0.05023298               -0.04322307
               5.00000000                2.00000000                0.00000000                1.00000000               -0.00000000                0.00000000               -0.00048949               -0.00000000                0.01557125               -0.01460273
               6.00000000                2.00000000                0.00000000                1.00000000               -0.00000000               -0.00000000               -0.00035499               -0.00000000                0.03088542                0.00438079
               7.00000000                2.00000000                0.00000000                1.00000000                0.00000000                0.00000000               -0.02484044               -0.00000000                0.11171879                0.01122685
               8.00000000                2.00000000                0.00000000                1.00000000               -0.00000000                0.00000000                0.17851772                0.00000000                0.33512455               -0.01216806
               9.00000000                2.00000000                0.00000000                1.00000000               -0.00000000               -0.00000000               -0.70971332               -0.00000000                0.59613128               -0.07982465
              10.00000000                2.00000000                0.00000000                1.00000000                0.00000000                0.00000000               -2.46138688                0.00000000                1.37758178               -0.33856447
               0.00000000                3.00000000                0.00000000                1.00000000                0.00000000                0.00000000                2.15483456                0.00000000                1.19285615                0.09993698
               1.00000000                3.00000000                0.00000000                1.00000000               -0.00000000               -0.00000000                0.72265591                0.00000000                0.49250265                0.01989798
               2.00000000                3.00000000                0.00000000                1.00000000               -0.00000000               -0.00000000               -0.31160680               -0.00000000                0.35650263               -0.06514277
               3.00000000                3.00000000                0.00000000                1.00000000                0.00000000                0.00000000               -0.09567447                0.00000000                0.23493623                0.03362451
               4.00000000                3.00000000                0.00000000                1.00000000                0.00000000                0.00000000                0.01625432                0.00000000                0.07596823               -0.01277025
               5.00000000                3.00000000                0.00000000                1.00000000               -0.00000000               -0.00000000               -0.00082900                0.00000000                0.02912936               -0.00650490
               6.00000000                3.00000000                0.00000000                1.00000000                0.00000000                0.00000000               -0.00224558               -0.00000000                0.03426319               -0.00627592
               7.00000000                3.00000000                0.00000000                1.00000000               -0.00000000                0.00000000               -0.00244988                0.00000000                0.08268479               -0.01978459
               8.00000000                3.00000000                0.00000000                1.00000000               -0.00000000               -0.00000000               -0.00255186               -0.00000000                0.19006397               -0.02099712
               9.00000000                3.00000000                0.00000000                1.00000000                0.00000000               -0.00000000               -0.44555844                0.00000000                0.53857894                0.02457541
              10.00000000                3.00000000                0.00000000                1.00000000                0.00000000                0.00000000               -2.53984903                0.00000000                1.37834276                0.00698545
               0.00000000                4.00000000                0.00000000                1.00000000                0.00000000               -0.00000000                1.97554877                0.00000000                1.10530562               -0.10995937
               1.00000000                4.00000000                0.00000000                1.00000000                0.00000000                0.00000000                0.52606196                0.00000000                0.46135017               -0.04284397
               2.00000000                4.00000000                0.00000000                1.00000000               -0.00000000                0.00000000               -0.47099875                0.00000000                0.35403497               -0.02609289
               3.00000000                4.00000000                0.00000000                1.00000000                0.00000000               -0.00000000                0.06397999                0.00000000                0.14185089                0.02072761
               4.00000000                4.00000000                0.00000000                1.00000000               -0.00000000               -0.00000000               -0.00293330               -0.00000000                0.06030625                0.01084318
               5.00000000                4.00000000                0.00000000                1.00000000                0.00000000                0.00000000                0.00147614               -0.00000000                0.02941883               -0.00402285
               6.00000000                4.00000000                0.00000000                1.00000000               -0.00000000               -0.00000000               -0.00069416                0.00000000                0.02845926               -0.00870685
               7.00000000                4.00000000                0.00000000                1.00000000               -0.00000000                0.00000000               -0.00793911               -0.00000000                0.05584560               -0.02001438
               8.00000000                4.00000000                0.00000000                1.00000000                0.00000000                0.00000000                0.02442973                0.00000000                0.15413436               -0.03759963
               9.00000000                4.00000000                0.00000000                1.00000000               -0.00000000               -0.00000000               -0.43425902               -0.00000000                0.47223082                0.08263665
              10.00000000                4.00000000                0.00000000                1.00000000               -0.00000000               -0.00000000               -2.55393612                0.00000000                1.29715439                0.31001107
               0.00000000                5.00000000                0.00000000                1.00000000               -0.00000000                0.00000000                1.71697334                0.00000000                0.96942339               -0.26558052
               1.00000000                5.00000000                0.00000000                1.00000000                0.00000000                0.00000000                0.37812140                0.00000000                0.43038760               -0.08230417
               2.00000000                5.00000000                0.00000000                1.00000000                0.00000000               -0.00000000               -0.54937967                0.00000000                0.37580146                0.09768457
               3.00000000                5.00000000                0.00000000                1.00000000                0.00000000                0.00000000                0.07963156                0.00000000                0.12871717                0.04162851
               4.00000000                5.00000000                0.00000000                1.00000000               -0.00000000               -0.00000000               -0.00687153                0.00000000                0.05337876               -0.00035858
               5.00000000                5.00000000                0.00000000                1.00000000                0.00000000               -0.00000000                0.00242198               -0.00000000                0.02816747               -0.00265243
               6.00000000                5.00000000                0.00000000                1.00000000               -0.00000000                0.00000000               -0.00051570               -0.00000000                0.02094294               -0.00743829
               7.00000000                5.00000000                0.00000000                1.00000000                0.00000000               -0.00000000               -0.00468016                0.00000000                0.03376694               -0.01854561
               8.00000000                5.00000000                0.00000000                1.00000000               -0.00000000               -0.00000000                0.02007650                0.00000000                0.06840151               -0.04737714
               9.00000000                5.00000000                0.00000000                1.00000000               -0.00000000                0.00000000               -0.29940289                0.00000000                0.21378386                0.08613406
              10.00000000                5.00000000                0.00000000                1.00000000                0.00000000                0.00000000               -1.78397487                0.00000000                0.94801652                0.63267566
               0.00000000                6.00000000                0.00000000                1.00000000                0.00000000                0.00000000                1.39506508                0.00000000                0.74861797               -0.36505239
               1.00000000                6.00000000                0.00000000                1.00000000               -0.00000000               -0.00000000                0.14776148                0.00000000                0.34270624               -0.12826424
               2.00000000                6.00000000                0.00000000                1.00000000                0.00000000               -0.00000000               -0.26170357                0.00000000                0.33590875                0.19154021
               3.00000000                6.00000000                0.00000000                1.00000000                0.00000000                0.00000000               -0.16332435                0.00000000                0.30870716                0.14552919
               4.00000000                6.00000000                0.00000000                1.00000000               -0.00000000                0.00000000                0.02432629               -0.00000000                0.08576784                0.00957555
               5.00000000                6.00000000                0.00000000                1.00000000               -0.00000000               -0.00000000               -0.00038936                0.00000000                0.02885766               -0.00084511
               6.00000000                6.00000000                0.00000000                1.00000000               -0.00000000                0.00000000               -0.00006562                0.00000000                0.01516952               -0.00437798
               7.00000000                6.00000000                0.00000000                1.00000000                0.00000000                0.00000000                0.00016917               -0.00000000                0.01426377               -0.01330311
               8.00000000                6.00000000                0.00000000                1.00000000                0.00000000                0.00000000               -0.00815884                0.00000000                0.01410067               -0.01981505
               9.00000000                6.00000000                0.00000000                1.00000000               -0.00000000               -0.00000000                0.00838164                0.00000000                0.02996115                0.00328466
              10.00000000                6.00000000                0.00000000                1.00000000                0.00000000                0.00000000                0.11175444               -0.00000000                0.09536972                0.24570144
               0.00000000                7.00000000                0.00000000                1.00000000               -0.00000000               -0.00000000                1.04778123               -0.00000000                0.51324502               -0.38308956
               1.00000000                7.00000000                0.00000000                1.00000000               -0.00000000                0.00000000               -0.06490287                0.00000000                0.20988406               -0.15840736
               2.00000000                7.00000000                0.00000000                1.00000000               -0.00000000               -0.00000000               -0.00565580                0.00000000                0.15608328                0.17345621
               3.00000000                7.00000000                0.00000000                1.00000000               -0.00000000                0.00000000               -0.20788640               -0.00000000                0.16914417                0.22120142
               4.00000000                7.00000000                0.00000000                1.00000000                0.00000000               -0.00000000                0.02745421               -0.00000000                0.07965641                0.03004731
               5.00000000                7.00000000                0.00000000                1.00000000               -0.00000000                0.00000000               -0.00093729                0.00000000                0.02553474                0.00599007
               6.00000000                7.00000000                0.00000000                1.00000000               -0.00000000                0.00000000                0.00046719               -0.00000000                0.01040994               -0.00122576
               7.00000000                7.00000000                0.00000000                1.00000000                0.00000000               -0.00000000               -0.00070588                0.00000000                0.00468805               -0.00483321
               8.00000000                7.00000000                0.00000000                1.00000000               -0.00000000               -0.00000000                0.00023546               -0.00000000               -0.00070839               -0.00699108
               9.00000000                7.00000000                0.00000000                1.00000000               -0.00000000               -0.00000000                0.00164198               -0.00000000               -0.01695798                0.01068591
              10.00000000                7.00000000                0.00000000                1.00000000                0.00000000               -0.00000000               -0.01118563               -0.00000000               -0.01248851                0.05708049
               0.00000000                8.00000000                0.00000000                1.00000000               -0.00000000                0.00000000                0.72095038                0.00000000                0.31349037               -0.36440431
               1.00000000                8.00000000                0.00000000                1.00000000                0.00000000               -0.00000000               -0.19162710               -0.00000000                0.11831512               -0.09808058
               2.00000000                8.00000000                0.00000000                1.00000000               -0.00000000               -0.00000000                0.02364637               -0.00000000                0.02890170                0.05987797
               3.00000000                8.00000000                0.00000000                1.00000000               -0.00000000               -0.00000000                0.03009876                0.00000000                0.02873445                0.08214505
               4.00000000                8.00000000                0.00000000                1.00000000                0.00000000                0.00000000               -0.00497969                0.00000000                0.03679181                0.03848329
               5.00000000                8.00000000                0.00000000                1.00000000               -0.00000000                0.00000000                0.00219085               -0.00000000                0.01663376                0.00892662
               6.00000000                8.00000000                0.00000000                1.00000000                0.00000000                0.00000000               -0.00012833                0.00000000                0.00647699                0.00178855
               7.00000000                8.00000000                0.00000000                1.00000000               -0.00000000                0.00000000               -0.00013672                0.00000000                0.00197484               -0.00074595
               8.00000000                8.00000000                0.00000000                1.00000000                0.00000000                0.00000000               -0.00028824                0.00000000               -0.00253932                0.00071996
               9.00000000                8.00000000                0.00000000                1.00000000                0.00000000                0.00000000               -0.00060445               -0.00000000               -0.00493388                0.00797199
              10.00000000                8.00000000                0.00000000                1.00000000               -0.00000000               -0.00000000                0.00267397                0.00000000               -0.00029235                0.01253546
               0.00000000                9.00000000                0.00000000                1.00000000                0.00000000                0.00000000                0.32179045               -0.00000000                0.08324111               -0.32317911
               1.00000000                9.00000000                0.00000000                1.00000000               -0.00000000               -0.00000000               -0.13256880               -0.00000000                0.00093196               -0.01149059
               2.00000000                9.00000000                0.00000000                1.00000000               -0.00000000                0.00000000                0.01541707                0.00000000                0.00446990                0.02427467
               3.00000000                9.00000000                0.00000000                1.00000000                0.00000000               -0.00000000               -0.00289003                0.00000000                0.00578513                0.02968827
               4.00000000                9.00000000                0.00000000                1.00000000               -0.00000000                0.00000000                0.00277335                0.00000000                0.00802374                0.01988768
               5.00000000                9.00000000                0.00000000                1.00000000               -0.00000000                0.00000000               -0.00000662               -0.00000000                0.00718713                0.00918966
               6.00000000                9.00000000                0.00000000                1.00000000               -0.00000000                0.00000000                0.00013186               -0.00000000                0.00347181                0.00283870
               7.00000000                9.00000000                0.00000000                1.00000000                0.00000000               -0.00000000               -0.00020604                0.00000000                0.00116915                0.00116614
               8.00000000                9.00000000                0.00000000                1.00000000               -0.00000000               -0.00000000               -0.00028886               -0.00000000               -0.00010435                0.00184865
               9.00000000                9.00000000                0.00000000                1.00000000               -0.00000000                0.00000000               -0.00015914                0.00000000               -0.00003962                0.00354640
              10.00000000                9.00000000                0.00000000                1.00000000                0.00000000                0.00000000               -0.00158072               -0.00000000                0.00131405                0.00390070
               0.00000000               10.00000000                0.00000000                1.00000000                0.00000000               -0.00000000               -0.04577023                0.00000000               -0.03416210               -0.15632960
               1.00000000               10.00000000                0.00000000                1.00000000               -0.00000000                0.00000000                0.06254037                0.00000000               -0.05343191               -0.04357440
               2.00000000               10.00000000                0.00000000                1.00000000                0.00000000               -0.00000000               -0.01515623               -0.00000000               -0.01704033                0.01597194
               3.00000000               10.00000000                0.00000000                1.00000000               -0.00000000               -0.00000000               -0.00456047               -0.00000000               -0.00091648                0.02003429