TITLE="results for TO code"
VARIABLES = "x", "y", "z", "density", "sigmaxx", "sigmayy", "sigmazz", "sigmaxy", "sigmaxz", "sigmayz"
ZONE T="load step 1", NODES= 12221, ELEMENTS= 10000, DATAPACKING=POINT, ZONETYPE=FEBRICK
               0.00000000                0.00000000                0.00000000                1.00000000               -0.00000000               -0.00000000                2.50331633               -0.00000000                0.66891028                1.49059168
               1.00000000                0.00000000                0.00000000                1.00000000                0.00000000                0.00000000                1.64668478                0.00000000               -0.01090118                0.92283682
               2.00000000                0.00000000                0.00000000                1.00000000                0.00000000                0.00000000                0.67272205               -0.00000000               -0.22362208                0.35715152
               3.00000000                0.00000000                0.00000000                1.00000000               -0.00000000               -0.00000000                0.01444449                0.00000000               -0.08690723                0.01427143
               4.00000000                0.00000000                0.00000000                1.00000000                0.00000000                0.00000000               -0.02956425               -0.00000000                0.02097065               -0.03549083
               5.00000000                0.00000000                0.00000000                1.00000000               -0.00000000                0.00000000               -0.00959850               -0.00000000                0.04686180               -0.00751278
               6.00000000                0.00000000                0.00000000                1.00000000               -0.00000000                0.00000000               -0.00415752                0.00000000                0.03121982                0.00724162
               7.00000000                0.00000000                0.00000000                1.00000000                0.00000000               -0.00000000               -0.09730291                0.00000000               -0.03193355               -0.07373715
               8.00000000                0.00000000                0.00000000                1.00000000                0.00000000                0.00000000               -0.81242015                0.00000000               -0.06784688               -0.53679900
               9.00000000                0.00000000                0.00000000                1.00000000                0.00000000               -0.00000000               -2.05838973                0.00000000                0.33122354               -1.20967059
              10.00000000                0.00000000                0.00000000                1.00000000               -0.00000000               -0.00000000               -3.32434393                0.00000000                1.25645377               -1.77774465
               0.00000000                1.00000000                0.00000000                1.00000000               -0.00000000                0.00000000                2.05243631               -0.00000000                1.01415944                0.77648454
               1.00000000                1.00000000                0.00000000                1.00000000               -0.00000000                0.00000000                1.16092808               -0.00000000                0.36804396                0.42317349
               2.00000000                1.00000000                0.00000000                1.00000000                0.00000000               -0.00000000                0.34560044                0.00000000                0.09630288                0.07083540
               3.00000000                1.00000000                0.00000000                1.00000000                0.00000000                0.00000000                0.00247030                0.00000000                0.04609151               -0.03088813
               4.00000000                1.00000000                0.00000000                1.00000000               -0.00000000               -0.00000000               -0.00174420               -0.00000000                0.02758039               -0.02408817
               5.00000000                1.00000000                0.00000000                1.00000000                0.00000000               -0.00000000               -0.00292095                0.00000000                0.02661019               -0.00382553
               6.00000000                1.00000000                0.00000000                1.00000000                0.00000000               -0.00000000               -0.00657482               -0.00000000                0.04250689                0.01062528
               7.00000000                1.00000000                0.00000000                1.00000000                0.00000000                0.00000000               -0.04107977                0.00000000                0.09620472               -0.01329740
               8.00000000                1.00000000                0.00000000                1.00000000               -0.00000000               -0.00000000               -0.27383466               -0.00000000                0.23113375               -0.12275657
               9.00000000                1.00000000                0.00000000                1.00000000               -0.00000000                0.00000000               -1.35598743                0.00000000                0.63391085               -0.52816617
              10.00000000                1.00000000                0.00000000                1.00000000               -0.00000000               -0.00000000               -2.94969055                0.00000000                1.54215498               -0.85681678
               0.00000000                2.00000000                0.00000000                1.00000000               -0.00000000               -0.00000000                2.02114401                0.00000000                1.14654991                0.37421786
               1.00000000                2.00000000                0.00000000                1.00000000                0.00000000                0.00000000                0.82562947                0.00000000                0.46527245                0.16592900
               2.00000000                2.00000000                0.00000000                1.00000000               -0.00000000                0.00000000                0.05662023               -0.00000000                0.18011550               -0.02093915
               3.00000000                2.00000000                0.00000000                1.00000000               -0.00000000               -0.00000000                0.00010671               -0.00000000                0.07016056               -0.01449273
               4.00000000                2.00000000                0.00000000                1.00000000                0.00000000                0.00000000                0.00179404                0.00000000                0.02577875               -0.01159542
               5.00000000                2.00000000                0.00000000                1.00000000                0.00000000                0.00000000               -0.00008083               -0.00000000                0.01527594               -0.00391203
               6.00000000                2.00000000                0.00000000                1.00000000               -0.00000000                0.00000000               -0.00040654                0.00000000                0.02823921               -0.00270319
               7.00000000                2.00000000                0.00000000                1.00000000                0.00000000                0.00000000               -0.00973913               -0.00000000                0.07183672               -0.01943578
               8.00000000                2.00000000                0.00000000                1.00000000                0.00000000                0.00000000                0.05068515                0.00000000                0.17117748               -0.07841461
               9.00000000                2.00000000                0.00000000                1.00000000               -0.00000000               -0.00000000               -0.68903585                0.00000000                0.45733433               -0.20072288
              10.00000000                2.00000000                0.00000000                1.00000000                0.00000000                0.00000000               -2.35430619                0.00000000                1.46270106               -0.18264039
               0.00000000                3.00000000                0.00000000                1.00000000                0.00000000                0.00000000                1.92528038               -0.00000000                1.11002752                0.11424631
               1.00000000                3.00000000                0.00000000                1.00000000                0.00000000                0.00000000                0.53300976                0.00000000                0.44012591                0.04200595
               2.00000000                3.00000000                0.00000000                1.00000000               -0.00000000               -0.00000000               -0.05189768                0.00000000                0.18561706               -0.03045468
               3.00000000                3.00000000                0.00000000                1.00000000               -0.00000000               -0.00000000                0.01167951                0.00000000                0.07440937               -0.00701401
               4.00000000                3.00000000                0.00000000                1.00000000               -0.00000000                0.00000000                0.00084912                0.00000000                0.02921470               -0.00434850
               5.00000000                3.00000000                0.00000000                1.00000000               -0.00000000               -0.00000000                0.00027831                0.00000000                0.01613764               -0.00336241
               6.00000000                3.00000000                0.00000000                1.00000000                0.00000000               -0.00000000               -0.00121795               -0.00000000                0.02152896               -0.00603079
               7.00000000                3.00000000                0.00000000                1.00000000               -0.00000000                0.00000000               -0.00313205                0.00000000                0.04611033               -0.01903699
               8.00000000                3.00000000                0.00000000                1.00000000                0.00000000                0.00000000                0.00301030               -0.00000000                0.09757994               -0.05215485
               9.00000000                3.00000000                0.00000000                1.00000000               -0.00000000                0.00000000               -0.26323881               -0.00000000                0.22291336               -0.09367230
              10.00000000                3.00000000                0.00000000                1.00000000                0.00000000               -0.00000000               -1.20697886                0.00000000                0.94471494                0.04138323
               0.00000000                4.00000000                0.00000000                1.00000000               -0.00000000               -0.00000000                1.75962159                0.00000000                0.99419982               -0.03855623
               1.00000000                4.00000000                0.00000000                1.00000000               -0.00000000               -0.00000000                0.33425407               -0.00000000                0.39522116               -0.03407786
               2.00000000                4.00000000                0.00000000                1.00000000                0.00000000                0.00000000               -0.08065220               -0.00000000                0.18538820               -0.03032269
               3.00000000                4.00000000                0.00000000                1.00000000               -0.00000000               -0.00000000                0.01278314                0.00000000                0.07488793               -0.00397597
               4.00000000                4.00000000                0.00000000                1.00000000                0.00000000               -0.00000000                0.00121085               -0.00000000                0.02947678               -0.00157151
               5.00000000                4.00000000                0.00000000                1.00000000                0.00000000                0.00000000                0.00037564                0.00000000                0.01538483               -0.00207433
               6.00000000                4.00000000                0.00000000                1.00000000               -0.00000000               -0.00000000               -0.00040548                0.00000000                0.01624321               -0.00475532
               7.00000000                4.00000000                0.00000000                1.00000000                0.00000000                0.00000000               -0.00370451                0.00000000                0.02968674               -0.01180233
               8.00000000                4.00000000                0.00000000                1.00000000               -0.00000000               -0.00000000                0.01209169                0.00000000                0.05786811               -0.02274231
               9.00000000                4.00000000                0.00000000                1.00000000                0.00000000               -0.00000000               -0.20989739                0.00000000                0.13143666               -0.00065779
              10.00000000                4.00000000                0.00000000                1.00000000               -0.00000000                0.00000000               -1.03747925                0.00000000                0.72017100                0.09112633
               0.00000000                5.00000000                0.00000000                1.00000000               -0.00000000                0.00000000                1.57348041               -0.00000000                0.86270851               -0.12270282
               1.00000000                5.00000000                0.00000000                1.00000000                0.00000000               -0.00000000                0.14870207                0.00000000                0.34623537               -0.07808159
               2.00000000                5.00000000                0.00000000                1.00000000               -0.00000000               -0.00000000               -0.09700769                0.00000000                0.17902490               -0.02836793
               3.00000000                5.00000000                0.00000000                1.00000000                0.00000000                0.00000000                0.01405925                0.00000000                0.07324100               -0.00192665
               4.00000000                5.00000000                0.00000000                1.00000000               -0.00000000               -0.00000000                0.00107172                0.00000000                0.02861117               -0.00011564
               5.00000000                5.00000000                0.00000000                1.00000000               -0.00000000               -0.00000000                0.00054688               -0.00000000                0.01409450               -0.00088405
               6.00000000                5.00000000                0.00000000                1.00000000               -0.00000000                0.00000000               -0.00024226                0.00000000                0.01284635               -0.00255119
               7.00000000                5.00000000                0.00000000                1.00000000               -0.00000000               -0.00000000               -0.00220209                0.00000000                0.02161703               -0.00499861
               8.00000000                5.00000000                0.00000000                1.00000000                0.00000000                0.00000000                0.00861019                0.00000000                0.04310177               -0.00244621
               9.00000000                5.00000000                0.00000000                1.00000000               -0.00000000                0.00000000               -0.14845272               -0.00000000                0.10752373                0.05532535
              10.00000000                5.00000000                0.00000000                1.00000000                0.00000000               -0.00000000               -0.90268241                0.00000000                0.61069460                0.13374906
               0.00000000                6.00000000                0.00000000                1.00000000               -0.00000000               -0.00000000                1.37780125                0.00000000                0.73314781               -0.16161083
               1.00000000                6.00000000                0.00000000                1.00000000                0.00000000               -0.00000000               -0.01929003                0.00000000                0.30392240               -0.09887123
               2.00000000                6.00000000                0.00000000                1.00000000                0.00000000               -0.00000000               -0.10439457                0.00000000                0.17265799               -0.02448563
               3.00000000                6.00000000                0.00000000                1.00000000               -0.00000000                0.00000000                0.01425889                0.00000000                0.07064614                0.00013492
               4.00000000                6.00000000                0.00000000                1.00000000                0.00000000                0.00000000                0.00099255                0.00000000                0.02711947                0.00130295
               5.00000000                6.00000000                0.00000000                1.00000000                0.00000000               -0.00000000                0.00058235               -0.00000000                0.01276346                0.00013259
               6.00000000                6.00000000                0.00000000                1.00000000               -0.00000000               -0.00000000               -0.00004387                0.00000000                0.01105796               -0.00095891
               7.00000000                6.00000000                0.00000000                1.00000000                0.00000000                0.00000000               -0.00154390                0.00000000                0.01880279               -0.00071885
               8.00000000                6.00000000                0.00000000                1.00000000                0.00000000                0.00000000                0.00521764               -0.00000000                0.04039618                0.00864732
               9.00000000                6.00000000                0.00000000                1.00000000               -0.00000000                0.00000000               -0.07890803                0.00000000                0.09880192                0.08796612
              10.00000000                6.00000000                0.00000000                1.00000000               -0.00000000                0.00000000               -0.77940713                0.00000000                0.50900966                0.17175828
               0.00000000                7.00000000                0.00000000                1.00000000                0.00000000               -0.00000000                1.17747412               -0.00000000                0.61496678               -0.17179121
               1.00000000                7.00000000                0.00000000                1.00000000               -0.00000000                0.00000000               -0.17406166                0.00000000                0.27289517               -0.09856571
               2.00000000                7.00000000                0.00000000                1.00000000               -0.00000000               -0.00000000               -0.10858330               -0.00000000                0.16859760               -0.01481380
               3.00000000                7.00000000                0.00000000                1.00000000                0.00000000                0.00000000                0.01405591                0.00000000                0.06708222                0.00495310
               4.00000000                7.00000000                0.00000000                1.00000000               -0.00000000                0.00000000                0.00078614                0.00000000                0.02443202                0.00357194
               5.00000000                7.00000000                0.00000000                1.00000000               -0.00000000                0.00000000                0.00058920                0.00000000                0.01102387                0.00097153
               6.00000000                7.00000000                0.00000000                1.00000000                0.00000000                0.00000000                0.00001623                0.00000000                0.00977596               -0.00062461
               7.00000000                7.00000000                0.00000000                1.00000000                0.00000000               -0.00000000               -0.00079679               -0.00000000                0.01870507                0.00045393
               8.00000000                7.00000000                0.00000000                1.00000000               -0.00000000                0.00000000                0.00051176                0.00000000                0.04348310                0.01435378
               9.00000000                7.00000000                0.00000000                1.00000000               -0.00000000                0.00000000                0.00461112               -0.00000000                0.09701945                0.11012642
              10.00000000                7.00000000                0.00000000                1.00000000               -0.00000000                0.00000000               -0.65005923               -0.00000000                0.40792331                0.19359529
               0.00000000                8.00000000                0.00000000                1.00000000               -0.00000000                0.00000000                0.96913272                0.00000000                0.51091056               -0.17057671
               1.00000000                8.00000000                0.00000000                1.00000000                0.00000000               -0.00000000               -0.31694541               -0.00000000                0.25373402               -0.06790842
               2.00000000                8.00000000                0.00000000                1.00000000               -0.00000000                0.00000000               -0.11844242                0.00000000                0.16433575                0.01427642
               3.00000000                8.00000000                0.00000000                1.00000000                0.00000000               -0.00000000                0.01313361                0.00000000                0.05803773                0.01786250
               4.00000000                8.00000000                0.00000000                1.00000000               -0.00000000               -0.00000000                0.00059878               -0.00000000                0.01855923                0.00638472
               5.00000000                8.00000000                0.00000000                1.00000000                0.00000000                0.00000000                0.00048910               -0.00000000                0.00925761                0.00095860
               6.00000000                8.00000000                0.00000000                1.00000000                0.00000000                0.00000000                0.00015689               -0.00000000                0.00830138               -0.00074642
               7.00000000                8.00000000                0.00000000                1.00000000               -0.00000000                0.00000000               -0.00036502                0.00000000                0.01651945               -0.00318537
               8.00000000                8.00000000                0.00000000                1.00000000               -0.00000000                0.00000000               -0.00244426                0.00000000                0.05219873                0.01025132
               9.00000000                8.00000000                0.00000000                1.00000000                0.00000000               -0.00000000                0.10346285               -0.00000000                0.11164561                0.12376072
              10.00000000                8.00000000                0.00000000                1.00000000               -0.00000000                0.00000000               -0.53034053                0.00000000                0.32462042                0.19757717
               0.00000000                9.00000000                0.00000000                1.00000000                0.00000000               -0.00000000                0.72025203                0.00000000                0.39545205               -0.19987497
               1.00000000                9.00000000                0.00000000                1.00000000               -0.00000000               -0.00000000               -0.43935806               -0.00000000                0.21954935                0.04211895
               2.00000000                9.00000000                0.00000000                1.00000000                0.00000000                0.00000000               -0.16462032                0.00000000                0.13647769                0.10456977
               3.00000000                9.00000000                0.00000000                1.00000000               -0.00000000               -0.00000000                0.01700537               -0.00000000                0.03388427                0.03791666
               4.00000000                9.00000000                0.00000000                1.00000000                0.00000000               -0.00000000               -0.00018296                0.00000000                0.01538015                0.00444198
               5.00000000                9.00000000                0.00000000                1.00000000               -0.00000000               -0.00000000                0.00057111                0.00000000                0.00887860                0.00079039
               6.00000000                9.00000000                0.00000000                1.00000000                0.00000000               -0.00000000                0.00013076               -0.00000000                0.00769176               -0.00077062
               7.00000000                9.00000000                0.00000000                1.00000000                0.00000000               -0.00000000                0.00072381               -0.00000000                0.01158611               -0.00569884
               8.00000000                9.00000000                0.00000000                1.00000000                0.00000000               -0.00000000               -0.00778549                0.00000000                0.04132825               -0.02397117
               9.00000000                9.00000000                0.00000000                1.00000000               -0.00000000               -0.00000000                0.28183232                0.00000000                0.15208557                0.08094201
              10.00000000                9.00000000                0.00000000                1.00000000               -0.00000000                0.00000000               -0.43758385               -0.00000000                0.28790009                0.22138103
               0.00000000               10.00000000                0.00000000                1.00000000                0.00000000                0.00000000                0.54916048               -0.00000000                0.00868962               -0.36053280
               1.00000000               10.00000000                0.00000000                1.00000000                0.00000000               -0.00000000               -0.59447865                0.00000000               -0.01157381                0.32019059
               2.00000000               10.00000000                0.00000000                1.00000000               -0.00000000               -0.00000000               -0.34970951               -0.00000000                0.14501441                0.33898114
               3.00000000               10.00000000                0.00000000                1.00000000                0.00000000                0.00000000               -0.00401955                0.00000000                0.08049977                0.05519185