TITLE="results for TO code"
VARIABLES = "x", "y", "z", "density", "sigmaxx", "sigmayy", "sigmazz", "sigmaxy", "sigmaxz", "sigmayz"
ZONE T="load step 1", NODES= 12221, ELEMENTS= 10000, DATAPACKING=POINT, ZONETYPE=FEBRICK
               0.00000000                0.00000000                0.00000000                1.00000000               -0.00000000               -0.00000000                1.83466289               -0.00000000                0.53498297                1.10012659
               1.00000000                0.00000000                0.00000000                1.00000000               -0.00000000                0.00000000                1.26007300                0.00000000                0.02993163                0.74792476
               2.00000000                0.00000000                0.00000000                1.00000000                0.00000000               -0.00000000                0.66883091               -0.00000000               -0.16152955                0.37975804
               3.00000000                0.00000000                0.00000000                1.00000000                0.00000000                0.00000000                0.14498105                0.00000000               -0.14557520                0.08645893
               4.00000000                0.00000000                0.00000000                1.00000000               -0.00000000                0.00000000               -0.01396037               -0.00000000               -0.03214046               -0.00751039
               5.00000000                0.00000000                0.00000000                1.00000000               -0.00000000                0.00000000               -0.00586425                0.00000000                0.00172450               -0.00513335
               6.00000000                0.00000000                0.00000000                1.00000000               -0.00000000                0.00000000               -0.01410383                0.00000000               -0.00439038               -0.00156524
               7.00000000                0.00000000                0.00000000                1.00000000                0.00000000               -0.00000000               -0.08663844                0.00000000               -0.05324286               -0.09107162
               8.00000000                0.00000000                0.00000000                1.00000000                0.00000000               -0.00000000               -0.76294543               -0.00000000               -0.05053907               -0.47063154
               9.00000000                0.00000000                0.00000000                1.00000000               -0.00000000                0.00000000               -1.56395367                0.00000000                0.24233892               -0.86818222
              10.00000000                0.00000000                0.00000000                1.00000000               -0.00000000               -0.00000000               -2.25076052                0.00000000                0.86672014               -1.20737660
               0.00000000                1.00000000                0.00000000                1.00000000                0.00000000                0.00000000                1.48678211               -0.00000000                0.73923508                0.58801369
               1.00000000                1.00000000                0.00000000                1.00000000               -0.00000000               -0.00000000                0.93256644               -0.00000000                0.26601820                0.36812284
               2.00000000                1.00000000                0.00000000                1.00000000               -0.00000000                0.00000000                0.40493776                0.00000000                0.05480183                0.12097098
               3.00000000                1.00000000                0.00000000                1.00000000               -0.00000000               -0.00000000                0.04605876               -0.00000000                0.00937338               -0.00665422
               4.00000000                1.00000000                0.00000000                1.00000000                0.00000000               -0.00000000               -0.00113295                0.00000000                0.00452834               -0.01455008
               5.00000000                1.00000000                0.00000000                1.00000000                0.00000000               -0.00000000               -0.00089874               -0.00000000                0.00709386               -0.00373384
               6.00000000                1.00000000                0.00000000                1.00000000               -0.00000000               -0.00000000               -0.00743468               -0.00000000                0.02324421                0.00378032
               7.00000000                1.00000000                0.00000000                1.00000000               -0.00000000                0.00000000               -0.00851063                0.00000000                0.06667118               -0.01847856
               8.00000000                1.00000000                0.00000000                1.00000000               -0.00000000                0.00000000               -0.37698815               -0.00000000                0.15340639               -0.15721991
               9.00000000                1.00000000                0.00000000                1.00000000                0.00000000               -0.00000000               -1.08495084               -0.00000000                0.45815729               -0.38963884
              10.00000000                1.00000000                0.00000000                1.00000000               -0.00000000                0.00000000               -1.86327017                0.00000000                1.04573036               -0.56913519
               0.00000000                2.00000000                0.00000000                1.00000000               -0.00000000               -0.00000000                1.44200053                0.00000000                0.81513211                0.31044627
               1.00000000                2.00000000                0.00000000                1.00000000                0.00000000                0.00000000                0.78913143               -0.00000000                0.32700294                0.17007061
               2.00000000                2.00000000                0.00000000                1.00000000               -0.00000000                0.00000000                0.17997413                0.00000000                0.11416616                0.01259254
               3.00000000                2.00000000                0.00000000                1.00000000                0.00000000               -0.00000000               -0.01656030                0.00000000                0.04936155               -0.01081622
               4.00000000                2.00000000                0.00000000                1.00000000                0.00000000               -0.00000000                0.00355767               -0.00000000                0.01973697               -0.00890312
               5.00000000                2.00000000                0.00000000                1.00000000               -0.00000000                0.00000000               -0.00055118                0.00000000                0.01272482               -0.00384443
               6.00000000                2.00000000                0.00000000                1.00000000                0.00000000                0.00000000               -0.00146326               -0.00000000                0.02530333               -0.00302652
               7.00000000                2.00000000                0.00000000                1.00000000                0.00000000                0.00000000               -0.00004357               -0.00000000                0.06407964               -0.01920000
               8.00000000                2.00000000                0.00000000                1.00000000                0.00000000               -0.00000000               -0.06685960                0.00000000                0.15574990               -0.02685784
               9.00000000                2.00000000                0.00000000                1.00000000                0.00000000                0.00000000               -0.69578446                0.00000000                0.43283456               -0.13476649
              10.00000000                2.00000000                0.00000000                1.00000000                0.00000000               -0.00000000               -1.76179911                0.00000000                1.03994302               -0.20789998
               0.00000000                3.00000000                0.00000000                1.00000000                0.00000000                0.00000000                1.38462141               -0.00000000                0.80996066                0.13493908
               1.00000000                3.00000000                0.00000000                1.00000000               -0.00000000                0.00000000                0.65481571                0.00000000                0.33483602                0.05488801
               2.00000000                3.00000000                0.00000000                1.00000000               -0.00000000               -0.00000000                0.03973631               -0.00000000                0.15726961               -0.03596653
               3.00000000                3.00000000                0.00000000                1.00000000               -0.00000000               -0.00000000                0.00329237                0.00000000                0.06257560               -0.00957991
               4.00000000                3.00000000                0.00000000                1.00000000               -0.00000000                0.00000000                0.00118081                0.00000000                0.02538918               -0.00449390
               5.00000000                3.00000000                0.00000000                1.00000000                0.00000000               -0.00000000               -0.00000305                0.00000000                0.01509858               -0.00309592
               6.00000000                3.00000000                0.00000000                1.00000000               -0.00000000                0.00000000               -0.00064324               -0.00000000                0.02205582               -0.00531428
               7.00000000                3.00000000                0.00000000                1.00000000                0.00000000               -0.00000000               -0.00894658               -0.00000000                0.04908073               -0.01156217
               8.00000000                3.00000000                0.00000000                1.00000000               -0.00000000                0.00000000                0.03153387               -0.00000000                0.11955003               -0.02288954
               9.00000000                3.00000000                0.00000000                1.00000000               -0.00000000               -0.00000000               -0.41150629                0.00000000                0.32649818               -0.04302622
              10.00000000                3.00000000                0.00000000                1.00000000                0.00000000                0.00000000               -1.57197512               -0.00000000                0.88581927               -0.00651250
               0.00000000                4.00000000                0.00000000                1.00000000               -0.00000000               -0.00000000                1.31884918                0.00000000                0.77673875                0.01643180
               1.00000000                4.00000000                0.00000000                1.00000000               -0.00000000               -0.00000000                0.51072339                0.00000000                0.32568002               -0.02295107
               2.00000000                4.00000000                0.00000000                1.00000000                0.00000000                0.00000000               -0.07260810               -0.00000000                0.17836726               -0.05004259
               3.00000000                4.00000000                0.00000000                1.00000000               -0.00000000                0.00000000                0.01272472               -0.00000000                0.06981748               -0.00554955
               4.00000000                4.00000000                0.00000000                1.00000000                0.00000000                0.00000000                0.00091745                0.00000000                0.02677332               -0.00206028
               5.00000000                4.00000000                0.00000000                1.00000000               -0.00000000               -0.00000000                0.00024104               -0.00000000                0.01478974               -0.00212527
               6.00000000                4.00000000                0.00000000                1.00000000                0.00000000                0.00000000               -0.00093417                0.00000000                0.01815620               -0.00414589
               7.00000000                4.00000000                0.00000000                1.00000000               -0.00000000               -0.00000000               -0.00415458               -0.00000000                0.04008921               -0.00914947
               8.00000000                4.00000000                0.00000000                1.00000000               -0.00000000               -0.00000000                0.01383883                0.00000000                0.09793774               -0.01626199
               9.00000000                4.00000000                0.00000000                1.00000000               -0.00000000                0.00000000               -0.30547166                0.00000000                0.27359738                0.01023505
              10.00000000                4.00000000                0.00000000                1.00000000               -0.00000000               -0.00000000               -1.38554962                0.00000000                0.75302674                0.08371381
               0.00000000                5.00000000                0.00000000                1.00000000                0.00000000                0.00000000                1.24028158               -0.00000000                0.72247675               -0.06900532
               1.00000000                5.00000000                0.00000000                1.00000000                0.00000000                0.00000000                0.34270041               -0.00000000                0.29380483               -0.06618385
               2.00000000                5.00000000                0.00000000                1.00000000               -0.00000000               -0.00000000               -0.11731424                0.00000000                0.16603752               -0.03869561
               3.00000000                5.00000000                0.00000000                1.00000000                0.00000000               -0.00000000                0.01587739                0.00000000                0.06684471               -0.00195781
               4.00000000                5.00000000                0.00000000                1.00000000               -0.00000000               -0.00000000                0.00063451                0.00000000                0.02589090               -0.00024992
               5.00000000                5.00000000                0.00000000                1.00000000                0.00000000                0.00000000                0.00035365                0.00000000                0.01354572               -0.00121745
               6.00000000                5.00000000                0.00000000                1.00000000               -0.00000000               -0.00000000               -0.00054887               -0.00000000                0.01500036               -0.00325779
               7.00000000                5.00000000                0.00000000                1.00000000               -0.00000000               -0.00000000               -0.00352178                0.00000000                0.03130500               -0.00777960
               8.00000000                5.00000000                0.00000000                1.00000000                0.00000000                0.00000000                0.00943320                0.00000000                0.07751903               -0.01366766
               9.00000000                5.00000000                0.00000000                1.00000000                0.00000000               -0.00000000               -0.20804174                0.00000000                0.22232311                0.04554567
              10.00000000                5.00000000                0.00000000                1.00000000               -0.00000000                0.00000000               -1.19803304                0.00000000                0.64553696                0.15022973
               0.00000000                6.00000000                0.00000000                1.00000000               -0.00000000               -0.00000000                1.13109267               -0.00000000                0.64596042               -0.12476508
               1.00000000                6.00000000                0.00000000                1.00000000                0.00000000               -0.00000000                0.20360405                0.00000000                0.25614116               -0.08360805
               2.00000000                6.00000000                0.00000000                1.00000000                0.00000000               -0.00000000               -0.11063837                0.00000000                0.14488539               -0.02851279
               3.00000000                6.00000000                0.00000000                1.00000000               -0.00000000                0.00000000                0.01375466                0.00000000                0.06092464               -0.00065059
               4.00000000                6.00000000                0.00000000                1.00000000                0.00000000                0.00000000                0.00077263                0.00000000                0.02401287                0.00063877
               5.00000000                6.00000000                0.00000000                1.00000000               -0.00000000               -0.00000000                0.00039147               -0.00000000                0.01209636               -0.00056555
               6.00000000                6.00000000                0.00000000                1.00000000                0.00000000               -0.00000000               -0.00041285                0.00000000                0.01209007               -0.00244437
               7.00000000                6.00000000                0.00000000                1.00000000                0.00000000               -0.00000000               -0.00219759               -0.00000000                0.02319552               -0.00587713
               8.00000000                6.00000000                0.00000000                1.00000000               -0.00000000                0.00000000                0.00400494                0.00000000                0.05251219               -0.00944103
               9.00000000                6.00000000                0.00000000                1.00000000               -0.00000000                0.00000000               -0.11546035               -0.00000000                0.14383740                0.05704085
              10.00000000                6.00000000                0.00000000                1.00000000                0.00000000                0.00000000               -0.88301926                0.00000000                0.51714622                0.20468758
               0.00000000                7.00000000                0.00000000                1.00000000                0.00000000                0.00000000                0.99855512                0.00000000                0.56567171               -0.15692631
               1.00000000                7.00000000                0.00000000                1.00000000               -0.00000000               -0.00000000                0.10477637               -0.00000000                0.23067939               -0.08853484
               2.00000000                7.00000000                0.00000000                1.00000000                0.00000000                0.00000000               -0.11629629                0.00000000                0.13988380               -0.02145171
               3.00000000                7.00000000                0.00000000                1.00000000               -0.00000000               -0.00000000                0.01309225               -0.00000000                0.05865465                0.00079123
               4.00000000                7.00000000                0.00000000                1.00000000               -0.00000000                0.00000000                0.00068647               -0.00000000                0.02231295                0.00163593
               5.00000000                7.00000000                0.00000000                1.00000000               -0.00000000               -0.00000000                0.00040153                0.00000000                0.01048082               -0.00000511
               6.00000000                7.00000000                0.00000000                1.00000000               -0.00000000                0.00000000               -0.00028690               -0.00000000                0.00963538               -0.00190596
               7.00000000                7.00000000                0.00000000                1.00000000                0.00000000               -0.00000000               -0.00123704                0.00000000                0.01771362               -0.00351391
               8.00000000                7.00000000                0.00000000                1.00000000                0.00000000               -0.00000000               -0.00033585                0.00000000                0.03655059                0.00081320
               9.00000000                7.00000000                0.00000000                1.00000000               -0.00000000                0.00000000               -0.04413736                0.00000000                0.08521056                0.06149768
              10.00000000                7.00000000                0.00000000                1.00000000                0.00000000                0.00000000               -0.52658736               -0.00000000                0.35324959                0.17769679
               0.00000000                8.00000000                0.00000000                1.00000000               -0.00000000               -0.00000000                0.85948118                0.00000000                0.49486454               -0.18941193
               1.00000000                8.00000000                0.00000000                1.00000000               -0.00000000               -0.00000000                0.02653017                0.00000000                0.21539977               -0.07879752
               2.00000000                8.00000000                0.00000000                1.00000000               -0.00000000               -0.00000000               -0.15166810                0.00000000                0.15043421               -0.00039626
               3.00000000                8.00000000                0.00000000                1.00000000                0.00000000                0.00000000                0.01100329                0.00000000                0.06120017                0.01047809
               4.00000000                8.00000000                0.00000000                1.00000000                0.00000000               -0.00000000                0.00006635                0.00000000                0.02026673                0.00473442
               5.00000000                8.00000000                0.00000000                1.00000000               -0.00000000                0.00000000                0.00052688               -0.00000000                0.00870972                0.00025823
               6.00000000                8.00000000                0.00000000                1.00000000               -0.00000000                0.00000000               -0.00015663                0.00000000                0.00769384               -0.00195733
               7.00000000                8.00000000                0.00000000                1.00000000                0.00000000                0.00000000               -0.00091603               -0.00000000                0.01449751               -0.00345973
               8.00000000                8.00000000                0.00000000                1.00000000               -0.00000000                0.00000000               -0.00146160               -0.00000000                0.03747473                0.00702088
               9.00000000                8.00000000                0.00000000                1.00000000               -0.00000000               -0.00000000               -0.00721088               -0.00000000                0.08109268                0.08177605
              10.00000000                8.00000000                0.00000000                1.00000000                0.00000000                0.00000000               -0.40126035                0.00000000                0.27040450                0.14588833
               0.00000000                9.00000000                0.00000000                1.00000000               -0.00000000               -0.00000000                0.69300894               -0.00000000                0.39215214               -0.26705635
               1.00000000                9.00000000                0.00000000                1.00000000                0.00000000                0.00000000               -0.03637042                0.00000000                0.19211251               -0.04279142
               2.00000000                9.00000000                0.00000000                1.00000000               -0.00000000               -0.00000000               -0.28470253               -0.00000000                0.17087766                0.08440369
               3.00000000                9.00000000                0.00000000                1.00000000                0.00000000               -0.00000000               -0.02462163                0.00000000                0.06934238                0.05040888
               4.00000000                9.00000000                0.00000000                1.00000000                0.00000000               -0.00000000                0.00351970                0.00000000                0.01894927                0.00971283
               5.00000000                9.00000000                0.00000000                1.00000000                0.00000000                0.00000000                0.00029274               -0.00000000                0.00961876               -0.00083891
               6.00000000                9.00000000                0.00000000                1.00000000               -0.00000000                0.00000000               -0.00005331               -0.00000000                0.00684646               -0.00183870
               7.00000000                9.00000000                0.00000000                1.00000000                0.00000000               -0.00000000               -0.00037762                0.00000000                0.01003561               -0.00560903
               8.00000000                9.00000000                0.00000000                1.00000000                0.00000000                0.00000000               -0.00407612               -0.00000000                0.03553046               -0.00771119
               9.00000000                9.00000000                0.00000000                1.00000000                0.00000000               -0.00000000                0.08073040               -0.00000000                0.11880631                0.08910951
              10.00000000                9.00000000                0.00000000                1.00000000               -0.00000000               -0.00000000               -0.45568251                0.00000000                0.26536499                0.20308484
               0.00000000               10.00000000                0.00000000                1.00000000                0.00000000                0.00000000                0.65210113                0.00000000                0.10536693               -0.44844808
               1.00000000               10.00000000                0.00000000                1.00000000               -0.00000000               -0.00000000               -0.07736953               -0.00000000               -0.01478325                0.01386470
               2.00000000               10.00000000                0.00000000                1.00000000                0.00000000                0.00000000               -0.50667439                0.00000000                0.10125418                0.33725581
               3.00000000               10.00000000                0.00000000                1.00000000               -0.00000000               -0.00000000               -0.13840702               -0.00000000                0.12885923                0.16006067