# vtk DataFile Version 2.0
quasi_2d_mesh, Created by Gmsh
ASCII
DATASET UNSTRUCTURED_GRID
POINTS 144 double
0 0 0
1 0 0
1 1 0
0 1 0
0.25 0.5 0
0.5 0.75 0
0.75 0.5 0
0.5 0.25 0
0 0 1
1 0 1
1 1 1
0 1 1
0.25 0.5 1
0.5 0.25 1
0.75 0.5 1
0.5 0.75 1
0.499999999998694 0 0
0.2499999999994194 0 0
0.749999999999347 0 0
1 0.499999999998694 0
1 0.2499999999994194 0
1 0.749999999999347 0
0.5000000000020591 1 0
0.7500000000009891 1 0
0.2500000000010296 1 0
0 0.5000000000020591 0
0 0.7500000000009891 0
0 0.2500000000010296 0
0.3232233050332188 0.6767766956264927 0
0.269030117025511 0.5956708584614503 0
0.4043291420681843 0.7309698831938708 0
0.6767766956454555 0.6767766949478183 0
0.5956708581292736 0.7309698831120811 0
0.7309698832076412 0.5956708578985709 0
0.676776694878377 0.3232233042851033 0
0.7309698830349429 0.4043291416844984 0
0.5956708576573165 0.2690301166924279 0
0.3232233043040662 0.3232233051026601 0
0.404329141518891 0.2690301170336539 0
0.2690301167795 0.4043291421324729 0
0.499999999998694 0 1
0.2499999999994194 0 1
0.749999999999347 0 1
1 0.499999999998694 1
1 0.2499999999994194 1
1 0.749999999999347 1
0.5000000000020591 1 1
0.7500000000009891 1 1
0.2500000000010296 1 1
0 0.5000000000020591 1
0 0.7500000000009891 1
0 0.2500000000010296 1
0.3232233043040662 0.3232233051026601 1
0.2690301168730354 0.4043291419066583 1
0.4043291414984544 0.269030117042119 1
0.676776694878377 0.3232233042851033 1
0.5956708579638239 0.2690301168193874 1
0.7309698830936446 0.4043291418262168 1
0.6767766956454555 0.6767766949478183 1
0.7309698832804961 0.5956708577226839 1
0.595670858018291 0.7309698831580516 1
0.3232233050332188 0.6767766956264927 1
0.4043291421212778 0.7309698832158629 1
0.2690301169872242 0.5956708583690178 1
0 0 0.4999999999986718
1 0 0.4999999999986718
1 1 0.4999999999986718
0 1 0.4999999999986718
0.25 0.5 0.4999999999986718
0.5 0.25 0.4999999999986718
0.75 0.5 0.4999999999986718
0.5 0.75 0.4999999999986718
0.8383883474391884 0.1616116521425516 0
0.875 0.499999999999347 0
0.8654849415174715 0.3271645708419589 0
0.1616116521520331 0.16161165255133 0
0.499999999999347 0.125 0
0.3271645707591552 0.1345150585168269 0
0.8383883478227278 0.8383883474739091 0
0.5000000000010296 0.875 0
0.6728354290651314 0.8654849415560406 0
0.1616116525166094 0.8383883478132463 0
0.125 0.5000000000010296 0
0.1345150585127555 0.6728354292312198 0
0.6728354288283318 0.1345150583462139 0
0.13451505838975 0.3271645710667512 0
0.8654849416038206 0.6728354289489589 0
0.3271645710346069 0.8654849415969355 0
0.4999999999986939 0 0.5
0.2499999999994194 0 0.4999999999993359
0.749999999999347 0 0.4999999999993359
1 0.4999999999986939 0.5
1 0.2499999999994194 0.4999999999993359
1 0.749999999999347 0.4999999999993359
0.5000000000020591 1 0.5
0.750000000000989 1 0.4999999999993359
0.2500000000010296 1 0.4999999999993359
0 0.5000000000020591 0.5
0 0.750000000000989 0.4999999999993359
0 0.2500000000010296 0.4999999999993359
0.3232233043040662 0.3232233051026601 0.5
0.4043291415086727 0.2690301170378864 0.4999999999993359
0.2690301168262677 0.4043291420195656 0.4999999999993359
0.676776694878377 0.3232233042851033 0.5
0.7309698830642939 0.4043291417553575 0.4999999999993359
0.5956708578105703 0.2690301167559076 0.4999999999993359
0.6767766956454555 0.6767766949478183 0.5
0.5956708580737823 0.7309698831350664 0.4999999999993359
0.7309698832440686 0.5956708578106275 0.4999999999993359
0.3232233050332188 0.6767766956264927 0.5
0.2690301170063676 0.595670858415234 0.4999999999993359
0.404329142094731 0.7309698832048668 0.4999999999993359
0.8383883474391884 0.1616116521425516 1
0.875 0.499999999999347 1
0.8654849415468223 0.327164570912818 1
0.1616116521520331 0.16161165255133 1
0.499999999999347 0.125 1
0.3271645707489369 0.1345150585210595 1
0.8383883478227278 0.8383883474739091 1
0.5000000000010296 0.875 1
0.6728354290096401 0.8654849415790258 1
0.1616116525166094 0.8383883478132463 1
0.125 0.5000000000010296 1
0.1345150584936121 0.6728354291850034 1
0.6728354289815854 0.1345150584096937 1
0.1345150584365177 0.327164570953844 1
0.865484941640248 0.6728354288610154 1
0.3271645710611537 0.8654849416079314 1
0.875 0.499999999999347 0.4999999999993359
0.8383883474391884 0.1616116521425516 0.4999999999993359
0.8654849415321468 0.3271645708773884 0.4999999999993359
0.499999999999347 0.125 0.4999999999993359
0.1616116521520331 0.16161165255133 0.4999999999993359
0.327164570754046 0.1345150585189432 0.4999999999993359
0.5000000000010296 0.875 0.4999999999993359
0.8383883478227279 0.8383883474739091 0.4999999999993359
0.6728354290373858 0.8654849415675331 0.4999999999993359
0.125 0.5000000000010296 0.4999999999993359
0.1616116525166094 0.8383883478132463 0.4999999999993359
0.1345150585031838 0.6728354292081111 0.4999999999993359
0.6728354289049584 0.1345150583779538 0.4999999999993359
0.1345150584131339 0.3271645710102976 0.4999999999993359
0.8654849416220343 0.6728354289049872 0.4999999999993359
0.3271645710478802 0.8654849416024333 0.4999999999993359

CELLS 8 224
27 6 34 1 19 14 55 9 43 35 72 20 73 57 112 44 113 70 103 65 91 128 129 104 92 74 114 130
27 7 37 0 16 13 52 8 40 38 75 17 76 54 115 41 116 69 100 64 88 131 132 101 89 77 117 133
27 5 31 2 22 15 58 10 46 32 78 23 79 60 118 47 119 71 106 66 94 134 135 107 95 80 120 136
27 4 28 3 25 12 61 11 49 29 81 26 82 63 121 50 122 68 109 67 97 137 138 110 98 83 123 139
27 7 16 1 34 13 40 9 55 76 18 72 36 116 42 112 56 69 88 65 103 105 90 131 129 84 124 140
27 4 25 0 37 12 49 8 52 82 27 75 39 122 51 115 53 68 97 64 100 102 99 137 132 85 125 141
27 6 19 2 31 14 43 10 58 73 21 78 33 113 45 118 59 70 91 66 106 108 93 128 135 86 126 142
27 5 22 3 28 15 46 11 61 79 24 81 30 119 48 121 62 71 94 67 109 111 96 134 138 87 127 143

CELL_TYPES 8
29
29
29
29
29
29
29
29

CELL_DATA 8
SCALARS CellEntityIds int 1
LOOKUP_TABLE default
1
1
1
1
1
1
1
1
