# vtk DataFile Version 2.0
quasi_2d_mesh, Created by Gmsh
ASCII
DATASET UNSTRUCTURED_GRID
POINTS 800 double
0 0 0
1 0 0
1 1 0
0 1 0
0.25 0.5 0
0.5 0.75 0
0.75 0.5 0
0.5 0.25 0
0 0 1
1 0 1
1 1 1
0 1 1
0.25 0.5 1
0.5 0.25 1
0.75 0.5 1
0.5 0.75 1
0.499999999998694 0 0
0.124999999999778 0 0
0.2499999999994167 0 0
0.3749999999990553 0 0
0.6249999999990205 0 0
0.749999999999347 0 0
0.8749999999996735 0 0
1 0.499999999998694 0
1 0.124999999999778 0
1 0.2499999999994167 0
1 0.3749999999990553 0
1 0.6249999999990205 0
1 0.749999999999347 0
1 0.8749999999996735 0
0.5000000000020591 1 0
0.8750000000003566 1 0
0.7500000000008733 1 0
0.6250000000015228 1 0
0.3750000000015443 1 0
0.2500000000010296 1 0
0.1250000000005148 1 0
0 0.5000000000020591 0
0 0.8750000000003566 0
0 0.7500000000008733 0
0 0.6250000000015228 0
0 0.3750000000015443 0
0 0.2500000000010296 0
0 0.1250000000005148 0
0.3232233050332188 0.6767766956264927 0
0.2548036799152411 0.5487725805847142 0
0.2690301169380567 0.595670858250317 0
0.2921325970599787 0.6388925584578629 0
0.3611074419914886 0.7078674032402683 0
0.4043291421308186 0.7309698832198148 0
0.4512274197083694 0.7451963201430569 0
0.6767766956454555 0.6767766949478183 0
0.5487725805112967 0.7451963200993625 0
0.5956708582630444 0.7309698830566714 0
0.6388925585487832 0.7078674028792702 0
0.7078674033444814 0.6388925578525454 0
0.7309698832595041 0.5956708577733631 0
0.7451963201040233 0.5487725804878658 0
0.676776694878377 0.3232233042851033 0
0.7451963200788402 0.4512274193855304 0
0.7309698830189145 0.4043291416458025 0
0.7078674027989058 0.3611074413309429 0
0.6388925578764795 0.2921325966715108 0
0.5956708576772819 0.2690301167006978 0
0.5487725802850428 0.2548036798556327 0
0.3232233043040662 0.3232233051026601 0
0.4512274193078858 0.2548036799366042 0
0.404329141567598 0.2690301170134788 0
0.3611074413614801 0.29213259718069 0
0.2921325966529198 0.3611074421513439 0
0.2690301167848513 0.4043291421195535 0
0.2548036798656849 0.4512274196644216 0
0.499999999998694 0 1
0.124999999999778 0 1
0.2499999999994167 0 1
0.3749999999990553 0 1
0.6249999999990205 0 1
0.749999999999347 0 1
0.8749999999996735 0 1
1 0.499999999998694 1
1 0.124999999999778 1
1 0.2499999999994167 1
1 0.3749999999990553 1
1 0.6249999999990205 1
1 0.749999999999347 1
1 0.8749999999996735 1
0.5000000000020591 1 1
0.8750000000003566 1 1
0.7500000000008733 1 1
0.6250000000015228 1 1
0.3750000000015443 1 1
0.2500000000010296 1 1
0.1250000000005148 1 1
0 0.5000000000020591 1
0 0.8750000000003566 1
0 0.7500000000008733 1
0 0.6250000000015228 1
0 0.3750000000015443 1
0 0.2500000000010296 1
0 0.1250000000005148 1
0.3232233043040662 0.3232233051026601 1
0.2548036798650172 0.4512274196677783 1
0.2690301167591552 0.4043291421815896 1
0.2921325967098796 0.3611074420660976 1
0.3611074413681312 0.2921325971762458 1
0.4043291416787627 0.2690301169674328 1
0.4512274193474861 0.2548036799287273 1
0.676776694878377 0.3232233042851033 1
0.5487725804790256 0.2548036798942183 1
0.5956708579779744 0.2690301168252487 1
0.6388925579941288 0.2921325967501215 1
0.7078674027991771 0.3611074413313491 1
0.7309698830509321 0.4043291417230996 1
0.7451963200780908 0.4512274193817628 1
0.6767766956454555 0.6767766949478183 1
0.7451963201296512 0.5487725803590255 1
0.7309698832377702 0.5956708578258331 1
0.7078674033333573 0.638892557869194 1
0.6388925586729732 0.707867402796289 1
0.5956708584204049 0.7309698829914906 1
0.5487725806652753 0.7451963200687344 1
0.3232233050332188 0.6767766956264927 1
0.4512274195952696 0.7451963201205599 1
0.4043291421711586 0.7309698832365242 1
0.3611074419980776 0.707867403244671 1
0.2921325970776449 0.6388925584843022 1
0.2690301169524536 0.5956708582850742 1
0.2548036799088338 0.5487725805525028 1
0 0 0.2499999999994146
0 0 0.4999999999986845
0 0 0.7499999999993423
1 0 0.2499999999994146
1 0 0.4999999999986845
1 0 0.7499999999993423
1 1 0.2499999999994146
1 1 0.4999999999986845
1 1 0.7499999999993423
0 1 0.2499999999994146
0 1 0.4999999999986845
0 1 0.7499999999993423
0.25 0.5 0.2499999999994146
0.25 0.5 0.4999999999986845
0.25 0.5 0.7499999999993423
0.5 0.25 0.2499999999994146
0.5 0.25 0.4999999999986845
0.5 0.25 0.7499999999993423
0.75 0.5 0.2499999999994146
0.75 0.5 0.4999999999986845
0.75 0.5 0.7499999999993423
0.5 0.75 0.2499999999994146
0.5 0.75 0.4999999999986845
0.5 0.75 0.7499999999993423
0.7575825211587828 0.2424174782138274 0
0.8383883474391884 0.1616116521425516 0
0.9191941737195942 0.08080582607127582 0
0.9375 0.4999999999990205 0
0.875 0.499999999999347 0
0.8125 0.4999999999996735 0
0.8088972400591301 0.4321705645389116 0
0.7809005520991794 0.3020805809981517 0
0.9269668506997263 0.1840268603325693 0
0.9362990800197101 0.394056854845674 0
0.7982274122641859 0.3657468562342061 0
0.8539337013994528 0.2430537206653605 0
0.9327424707547285 0.2885822854110132 0
0.87259816003942 0.4131137096922928 0
0.8654849415094572 0.3271645708226096 0
0.2424174782280496 0.242417478826995 0
0.1616116521520331 0.16161165255133 0
0.08080582607601655 0.08080582627566502 0
0.4999999999990205 0.0625 0
0.499999999999347 0.125 0
0.4999999999996735 0.1875 0
0.4321705644806781 0.1911027599524532 0
0.3020805810210546 0.2190994478855175 0
0.1840268603402036 0.07303314929517249 0
0.3940568548262629 0.06370091998415106 0
0.3657468561755526 0.2017725877601091 0
0.2430537206806291 0.146066298590345 0
0.288582285391462 0.0672575292533697 0
0.4131137096534706 0.1274018399683021 0
0.3271645707835074 0.1345150585067394 0
0.7575825217340917 0.7575825212108638 0
0.8383883478227278 0.8383883474739091 0
0.9191941739113638 0.9191941737369546 0
0.5000000000015443 0.9375 0
0.5000000000010296 0.875 0
0.5000000000005148 0.8125 0
0.5678294353838532 0.8088972400745218 0
0.6979194189116765 0.7809005521594526 0
0.8159731396374632 0.9269668507198174 0
0.6059431451289663 0.9362990800248406 0
0.6342531436975017 0.7982274122925036 0
0.75694627927457 0.853933701439635 0
0.7114177145664161 0.9327424707641678 0
0.5868862902564098 0.8725981600496813 0
0.6728354291319589 0.8654849415283357 0
0.2424174787749141 0.7575825217198695 0
0.1616116525166094 0.8383883478132463 0
0.08080582625830471 0.9191941739066232 0
0.0625 0.5000000000015443 0
0.125 0.5000000000010296 0
0.1875 0.5000000000005148 0
0.1911027599364308 0.5678294354389164 0
0.2190994477949841 0.6979194188434863 0
0.07303314926499468 0.8159731396147332 0
0.06370091997881028 0.6059431451473206 0
0.2017725877035425 0.6342531436879562 0
0.1460662985299894 0.7569462792291097 0
0.06725752923451417 0.7114177145632343 0
0.1274018399576206 0.5868862902931186 0
0.1345150584690283 0.6728354291255951 0
0.5678294352135372 0.1911027598917245 0
0.605943145070526 0.06370091996390817 0
0.8159731394688748 0.0730331491678777 0
0.6979194184072779 0.2190994475036331 0
0.5868862901420315 0.1274018399278163 0
0.7114177144188306 0.06725752917517445 0
0.7569462789380765 0.1460662983357554 0
0.6342531432577982 0.2017725875255234 0
0.6728354288383145 0.1345150583503489 0
0.1911027598992636 0.4321705647487023 0
0.06370091996642122 0.3940568549172636 0
0.07303314916322996 0.1840268605382221 0
0.2190994474896898 0.3020805816136367 0
0.1274018399328424 0.413113709832983 0
0.06725752919621283 0.2885822855306606 0
0.1460662983264599 0.2430537210759294 0
0.2017725875886385 0.3657468565899225 0
0.1345150583924257 0.3271645710602916 0
0.8088972400780174 0.5678294353656544 0
0.9362990800260058 0.6059431451212318 0
0.9269668508361204 0.8159731394628913 0
0.780900552508361 0.6979194183893274 0
0.8725981600520116 0.5868862902434431 0
0.932742470814876 0.711417714442851 0
0.8539337016722407 0.7569462789261094 0
0.798227412444628 0.6342531433298592 0
0.8654849416297521 0.6728354288863551 0
0.4321705647816632 0.8088972401072927 0
0.3940568549282506 0.9362990800357642 0
0.1840268604982583 0.926966850810067 0
0.3020805814937451 0.7809005524302013 0
0.4131137098549569 0.8725981600715285 0
0.2885822855334769 0.9327424708049536 0
0.2430537209960017 0.8539337016201342 0
0.3657468565983714 0.7982274124148612 0
0.3271645710659241 0.8654849416099074 0
0.499999999998694 0 0.25
0.4999999999986939 0 0.5
0.4999999999986939 0 0.75
0.124999999999778 0 0.249999999999561
0.3749999999990553 0 0.2499999999998537
0.3749999999990552 0 0.7499999999998356
0.1249999999997781 0 0.7499999999995067
0.2499999999994167 0 0.2499999999997073
0.3749999999990553 0 0.4999999999996712
0.2499999999994167 0 0.7499999999996712
0.124999999999778 0 0.4999999999990133
0.2499999999994167 0 0.4999999999993422
0.6249999999990206 0 0.2499999999998537
0.8749999999996735 0 0.249999999999561
0.8749999999996735 0 0.7499999999995067
0.6249999999990203 0 0.7499999999998356
0.749999999999347 0 0.2499999999997073
0.8749999999996734 0 0.4999999999990133
0.749999999999347 0 0.7499999999996712
0.6249999999990203 0 0.4999999999996712
0.749999999999347 0 0.4999999999993422
1 0.499999999998694 0.25
1 0.4999999999986939 0.5
1 0.4999999999986939 0.75
1 0.124999999999778 0.249999999999561
1 0.3749999999990553 0.2499999999998537
1 0.3749999999990552 0.7499999999998356
1 0.1249999999997781 0.7499999999995067
1 0.2499999999994167 0.2499999999997073
1 0.3749999999990553 0.4999999999996712
1 0.2499999999994167 0.7499999999996712
1 0.124999999999778 0.4999999999990133
1 0.2499999999994167 0.4999999999993422
1 0.6249999999990206 0.2499999999998537
1 0.8749999999996735 0.249999999999561
1 0.8749999999996735 0.7499999999995067
1 0.6249999999990203 0.7499999999998356
1 0.749999999999347 0.2499999999997073
1 0.8749999999996734 0.4999999999990133
1 0.749999999999347 0.7499999999996712
1 0.6249999999990203 0.4999999999996712
1 0.749999999999347 0.4999999999993422
0.5000000000020591 1 0.25
0.5000000000020591 1 0.5
0.5000000000020591 1 0.75
0.8750000000003566 1 0.249999999999561
0.6250000000015228 1 0.2499999999998537
0.6250000000015228 1 0.7499999999998356
0.8750000000003566 1 0.7499999999995067
0.7500000000008733 1 0.2499999999997073
0.6250000000015228 1 0.4999999999996712
0.7500000000008733 1 0.7499999999996712
[...]
CELL_DATA 8
SCALARS CellEntityIds int 1
LOOKUP_TABLE default
1
1
1
1
1
1
1
1
