# vtk DataFile Version 2.0
box, Created by Gmsh
ASCII
DATASET UNSTRUCTURED_GRID
POINTS 75 double
0 0 0
1 0 0
1 1 0
0 1 0
0 0 1
1 0 1
1 1 1
0 1 1
0.499999999998694 0 0
0.2499999999994194 0 0
0.749999999999347 0 0
1 0.499999999998694 0
1 0.2499999999994194 0
1 0.749999999999347 0
0.5000000000020591 1 0
0.7500000000009891 1 0
0.2500000000010296 1 0
0 0.5000000000020591 0
0 0.7500000000009891 0
0 0.2500000000010296 0
0.499999999998694 0 1
0.2499999999994194 0 1
0.749999999999347 0 1
1 0.499999999998694 1
1 0.2499999999994194 1
1 0.749999999999347 1
0.5000000000020591 1 1
0.7500000000009891 1 1
0.2500000000010296 1 1
0 0.5000000000020591 1
0 0.7500000000009891 1
0 0.2500000000010296 1
0 0 0.4999999999986718
1 0 0.4999999999986718
1 1 0.4999999999986718
0 1 0.4999999999986718
0.5000000003796137 0.5000000000255933 0
0.5000000001891538 0.2500000000127967 0
0.2500000001898068 0.5000000000138263 0
0.2500000000946131 0.2500000000069131 0
0.5000000001908365 0.7500000000127967 0
0.2500000000954182 0.7500000000068929 0
0.7500000001898068 0.5000000000121436 0
0.7500000000945769 0.250000000006108 0
0.7500000000953979 0.7500000000060718 0
0.4999999999986939 0 0.5
0.2499999999994194 0 0.4999999999993359
0.749999999999347 0 0.4999999999993359
1 0.4999999999986939 0.5
1 0.2499999999994194 0.4999999999993359
1 0.749999999999347 0.4999999999993359
0.5000000000020591 1 0.5
0.750000000000989 1 0.4999999999993359
0.2500000000010296 1 0.4999999999993359
0 0.5000000000020591 0.5
0 0.750000000000989 0.4999999999993359
0 0.2500000000010296 0.4999999999993359
0.5000000003796137 0.5000000000255933 1
0.5000000001891538 0.2500000000127967 1
0.2500000001898068 0.5000000000138263 1
0.2500000000946131 0.2500000000069131 1
0.5000000001908365 0.7500000000127967 1
0.2500000000954182 0.7500000000068929 1
0.7500000001898068 0.5000000000121436 1
0.7500000000945769 0.250000000006108 1
0.7500000000953979 0.7500000000060718 1
0.5000000003796137 0.5000000000255933 0.5
0.5000000001891538 0.2500000000127967 0.5
0.2500000001898068 0.5000000000138263 0.5
0.2500000000946131 0.2500000000069131 0.4999999999996679
0.5000000001908365 0.7500000000127967 0.5
0.2500000000954182 0.7500000000068927 0.4999999999996679
0.7500000001898068 0.5000000000121436 0.5
0.750000000094577 0.250000000006108 0.4999999999996679
0.7500000000953978 0.7500000000060717 0.4999999999996679

CELLS 4 112
27 0 8 36 17 4 20 57 29 9 37 38 19 21 58 59 31 32 45 66 54 56 67 46 68 39 60 69
27 3 17 36 14 7 29 57 26 18 38 40 16 30 59 61 28 35 54 66 51 53 68 55 70 41 62 71
27 8 1 11 36 20 5 23 57 10 12 42 37 22 24 63 58 45 33 48 66 67 49 47 72 43 64 73
27 14 36 11 2 26 57 23 6 40 42 13 15 61 63 25 27 51 66 48 34 52 72 70 50 44 65 74

CELL_TYPES 4
29
29
29
29

CELL_DATA 4
SCALARS CellEntityIds int 1
LOOKUP_TABLE default
1
1
1
1
