# vtk DataFile Version 2.0
box, Created by Gmsh
ASCII
DATASET UNSTRUCTURED_GRID
POINTS 405 double
0 0 0
1 0 0
1 1 0
0 1 0
0 0 1
1 0 1
1 1 1
0 1 1
0.499999999998694 0 0
0.124999999999778 0 0
0.2499999999994167 0 0
0.3749999999990553 0 0
0.6249999999990205 0 0
0.749999999999347 0 0
0.8749999999996735 0 0
1 0.499999999998694 0
1 0.124999999999778 0
1 0.2499999999994167 0
1 0.3749999999990553 0
1 0.6249999999990205 0
1 0.749999999999347 0
1 0.8749999999996735 0
0.5000000000020591 1 0
0.8750000000003566 1 0
0.7500000000008733 1 0
0.6250000000015228 1 0
0.3750000000015443 1 0
0.2500000000010296 1 0
0.1250000000005148 1 0
0 0.5000000000020591 0
0 0.8750000000003566 0
0 0.7500000000008733 0
0 0.6250000000015228 0
0 0.3750000000015443 0
0 0.2500000000010296 0
0 0.1250000000005148 0
0.499999999998694 0 1
0.124999999999778 0 1
0.2499999999994167 0 1
0.3749999999990553 0 1
0.6249999999990205 0 1
0.749999999999347 0 1
0.8749999999996735 0 1
1 0.499999999998694 1
1 0.124999999999778 1
1 0.2499999999994167 1
1 0.3749999999990553 1
1 0.6249999999990205 1
1 0.749999999999347 1
1 0.8749999999996735 1
0.5000000000020591 1 1
0.8750000000003566 1 1
0.7500000000008733 1 1
0.6250000000015228 1 1
0.3750000000015443 1 1
0.2500000000010296 1 1
0.1250000000005148 1 1
0 0.5000000000020591 1
0 0.8750000000003566 1
0 0.7500000000008733 1
0 0.6250000000015228 1
0 0.3750000000015443 1
0 0.2500000000010296 1
0 0.1250000000005148 1
0 0 0.2499999999994146
0 0 0.4999999999986845
0 0 0.7499999999993423
1 0 0.2499999999994146
1 0 0.4999999999986845
1 0 0.7499999999993423
1 1 0.2499999999994146
1 1 0.4999999999986845
1 1 0.7499999999993423
0 1 0.2499999999994146
0 1 0.4999999999986845
0 1 0.7499999999993423
0.5000000003796137 0.5000000000255933 0
0.5000000000939239 0.1250000000063983 0
0.5000000001891538 0.2500000000127967 0
0.5000000002843837 0.375000000019195 0
0.3750000002847103 0.5000000000197098 0
0.2500000001898068 0.5000000000138263 0
0.1250000000949034 0.5000000000079426 0
0.1250000000235593 0.1250000000019857 0
0.375000000070469 0.1250000000049274 0
0.3750000002132965 0.3750000000147823 0
0.1250000000711221 0.375000000005957 0
0.2500000000470142 0.1250000000034566 0
0.3750000001418827 0.2500000000098549 0
0.2500000001422093 0.3750000000103697 0
0.1250000000473407 0.2500000000039714 0
0.2500000000946118 0.2500000000069131 0
0.5000000002852251 0.625000000019195 0
0.5000000001908365 0.7500000000127967 0
0.5000000000964477 0.8750000000063983 0
0.125000000024112 0.875000000001867 0
0.1250000000713063 0.6250000000059408 0
0.3750000002139188 0.6250000000147768 0
0.3750000000723358 0.875000000004888 0
0.1250000000477091 0.7500000000038543 0
0.2500000001426125 0.6250000000103588 0
0.3750000001431273 0.7500000000098158 0
0.2500000000482239 0.8750000000033775 0
0.2500000000954182 0.750000000006835 0
0.8750000000949034 0.5000000000054188 0
0.7500000001898068 0.5000000000121436 0
0.6250000002847103 0.5000000000188685 0
0.6250000000704428 0.1250000000047433 0
0.875000000023481 0.1250000000014331 0
0.8750000000710958 0.3750000000040902 0
0.6250000002132878 0.37500000001416 0
0.7500000000469618 0.1250000000030882 0
0.8750000000472884 0.2500000000027617 0
0.7500000001421918 0.3750000000091251 0
0.6250000001418653 0.2500000000094517 0
0.7500000000945769 0.2500000000061067 0
0.6250000000723197 0.8750000000047171 0
0.6250000002139133 0.6250000000141513 0
0.8750000000712667 0.6250000000040641 0
0.8750000000239934 0.8750000000013547 0
0.6250000001431166 0.7500000000094342 0
0.7500000001425735 0.6250000000091077 0
0.87500000004763 0.7500000000027094 0
0.7500000000481067 0.8750000000030359 0
0.7500000000953401 0.7500000000060718 0
0.499999999998694 0 0.25
0.4999999999986939 0 0.5
0.4999999999986939 0 0.75
0.124999999999778 0 0.249999999999561
0.3749999999990553 0 0.2499999999998537
0.3749999999990552 0 0.7499999999998356
0.1249999999997781 0 0.7499999999995067
0.2499999999994167 0 0.2499999999997073
0.3749999999990553 0 0.4999999999996712
0.2499999999994167 0 0.7499999999996712
0.124999999999778 0 0.4999999999990133
0.2499999999994167 0 0.4999999999993422
0.6249999999990206 0 0.2499999999998537
0.8749999999996735 0 0.249999999999561
0.8749999999996735 0 0.7499999999995067
0.6249999999990203 0 0.7499999999998356
0.749999999999347 0 0.2499999999997073
0.8749999999996734 0 0.4999999999990133
0.749999999999347 0 0.7499999999996712
0.6249999999990203 0 0.4999999999996712
0.749999999999347 0 0.4999999999993422
1 0.499999999998694 0.25
1 0.4999999999986939 0.5
1 0.4999999999986939 0.75
1 0.124999999999778 0.249999999999561
1 0.3749999999990553 0.2499999999998537
1 0.3749999999990552 0.7499999999998356
1 0.1249999999997781 0.7499999999995067
1 0.2499999999994167 0.2499999999997073
1 0.3749999999990553 0.4999999999996712
1 0.2499999999994167 0.7499999999996712
1 0.124999999999778 0.4999999999990133
1 0.2499999999994167 0.4999999999993422
1 0.6249999999990206 0.2499999999998537
1 0.8749999999996735 0.249999999999561
1 0.8749999999996735 0.7499999999995067
1 0.6249999999990203 0.7499999999998356
1 0.749999999999347 0.2499999999997073
1 0.8749999999996734 0.4999999999990133
1 0.749999999999347 0.7499999999996712
1 0.6249999999990203 0.4999999999996712
1 0.749999999999347 0.4999999999993422
0.5000000000020591 1 0.25
0.5000000000020591 1 0.5
0.5000000000020591 1 0.75
0.8750000000003566 1 0.249999999999561
0.6250000000015228 1 0.2499999999998537
0.6250000000015228 1 0.7499999999998356
0.8750000000003566 1 0.7499999999995067
0.7500000000008733 1 0.2499999999997073
0.6250000000015228 1 0.4999999999996712
0.7500000000008733 1 0.7499999999996712
0.8750000000003566 1 0.4999999999990133
0.7500000000008733 1 0.4999999999993422
0.3750000000015443 1 0.2499999999998537
0.1250000000005148 1 0.249999999999561
0.1250000000005149 1 0.7499999999995067
0.3750000000015443 1 0.7499999999998356
0.2500000000010297 1 0.2499999999997073
0.1250000000005149 1 0.4999999999990133
0.2500000000010298 1 0.7499999999996712
0.3750000000015443 1 0.4999999999996712
0.2500000000010296 1 0.4999999999993422
0 0.5000000000020591 0.25
0 0.5000000000020591 0.5
0 0.5000000000020591 0.75
0 0.8750000000003566 0.249999999999561
0 0.6250000000015228 0.2499999999998537
0 0.6250000000015228 0.7499999999998356
0 0.8750000000003566 0.7499999999995067
0 0.7500000000008733 0.2499999999997073
0 0.6250000000015228 0.4999999999996712
0 0.7500000000008733 0.7499999999996712
0 0.8750000000003566 0.4999999999990133
0 0.7500000000008733 0.4999999999993422
0 0.3750000000015443 0.2499999999998537
0 0.1250000000005148 0.249999999999561
0 0.1250000000005149 0.7499999999995067
0 0.3750000000015443 0.7499999999998356
0 0.2500000000010297 0.2499999999997073
0 0.1250000000005149 0.4999999999990133
0 0.2500000000010298 0.7499999999996712
0 0.3750000000015443 0.4999999999996712
0 0.2500000000010296 0.4999999999993422
0.5000000003796137 0.5000000000255933 1
0.5000000000939239 0.1250000000063983 1
0.5000000001891538 0.2500000000127967 1
0.5000000002843837 0.375000000019195 1
0.3750000002847103 0.5000000000197098 1
0.2500000001898068 0.5000000000138263 1
0.1250000000949034 0.5000000000079426 1
0.1250000000235593 0.1250000000019857 1
0.375000000070469 0.1250000000049274 1
0.3750000002132965 0.3750000000147823 1
0.1250000000711221 0.375000000005957 1
0.2500000000470142 0.1250000000034566 1
0.3750000001418827 0.2500000000098549 1
0.2500000001422093 0.3750000000103697 1
0.1250000000473407 0.2500000000039714 1
0.2500000000946118 0.2500000000069131 1
0.5000000002852251 0.625000000019195 1
0.5000000001908365 0.7500000000127967 1
0.5000000000964477 0.8750000000063983 1
0.125000000024112 0.875000000001867 1
0.1250000000713063 0.6250000000059408 1
0.3750000002139188 0.6250000000147768 1
0.3750000000723358 0.875000000004888 1
0.1250000000477091 0.7500000000038543 1
0.2500000001426125 0.6250000000103588 1
0.3750000001431273 0.7500000000098158 1
0.2500000000482239 0.8750000000033775 1
0.2500000000954182 0.750000000006835 1
0.8750000000949034 0.5000000000054188 1
0.7500000001898068 0.5000000000121436 1
0.6250000002847103 0.5000000000188685 1
0.6250000000704428 0.1250000000047433 1
0.875000000023481 0.1250000000014331 1
0.8750000000710958 0.3750000000040902 1
0.6250000002132878 0.37500000001416 1
0.7500000000469618 0.1250000000030882 1
0.8750000000472884 0.2500000000027617 1
0.7500000001421918 0.3750000000091251 1
0.6250000001418653 0.2500000000094517 1
0.7500000000945769 0.2500000000061067 1
0.6250000000723197 0.8750000000047171 1
0.6250000002139133 0.6250000000141513 1
0.8750000000712667 0.6250000000040641 1
0.8750000000239934 0.8750000000013547 1
0.6250000001431166 0.7500000000094342 1
0.7500000001425735 0.6250000000091077 1
0.87500000004763 0.7500000000027094 1
0.7500000000481067 0.8750000000030359 1
0.7500000000953401 0.7500000000060718 1
0.5000000003796137 0.5000000000255933 0.25
0.5000000003796137 0.5000000000255933 0.5
0.5000000003796137 0.5000000000255933 0.75
0.5000000000939239 0.1250000000063983 0.25
0.5000000002843837 0.375000000019195 0.25
0.5000000002843837 0.375000000019195 0.75
0.5000000000939238 0.1250000000063983 0.75
0.5000000001891537 0.2500000000127967 0.25
0.5000000002843837 0.375000000019195 0.5
0.5000000001891538 0.2500000000127967 0.75
0.5000000000939238 0.1250000000063983 0.5
0.5000000001891538 0.2500000000127967 0.5
0.3750000002847103 0.5000000000197098 0.25
0.1250000000949034 0.5000000000079426 0.25
0.1250000000949034 0.5000000000079426 0.75
0.3750000002847103 0.5000000000197098 0.75
0.2500000001898068 0.5000000000138263 0.25
0.1250000000949034 0.5000000000079426 0.5
0.2500000001898068 0.5000000000138263 0.75
0.3750000002847103 0.5000000000197098 0.5
0.2500000001898068 0.5000000000138263 0.5
0.1250000000235594 0.1250000000019857 0.2499999999996708
0.375000000070469 0.1250000000049274 0.2499999999998903
0.3750000002132964 0.3750000000147826 0.2499999999999634
0.1250000000711221 0.3750000000059569 0.2499999999998903
0.1250000000235593 0.1250000000019857 0.7499999999996301
0.3750000000704688 0.1250000000049274 0.7499999999998768
0.3750000002132966 0.3750000000147822 0.7499999999999589
0.1250000000711221 0.375000000005957 0.7499999999998769
0.2500000000470142 0.1250000000034566 0.2499999999997805
0.1250000000473407 0.2500000000039715 0.2499999999997805
0.1250000000235594 0.1250000000019857 0.49999999999926
0.3750000001418828 0.250000000009855 0.2499999999999268
0.375000000070469 0.1250000000049275 0.4999999999997533
0.2500000001422094 0.3750000000103696 0.2499999999999268
0.3750000002132966 0.3750000000147824 0.4999999999999178
0.1250000000711221 0.375000000005957 0.4999999999997533
0.2500000000470141 0.1250000000034566 0.7499999999997533
0.1250000000473407 0.2500000000039715 0.7499999999997533
0.3750000001418827 0.2500000000098549 0.7499999999999178
0.2500000001422092 0.3750000000103696 0.7499999999999178
0.2500000000946117 0.2500000000069132 0.2499999999998537
0.2500000000470141 0.1250000000034566 0.4999999999995067
0.1250000000473407 0.2500000000039713 0.4999999999995067
0.3750000001418827 0.2500000000098549 0.4999999999998356
0.2500000001422094 0.3750000000103696 0.4999999999998356
0.2500000000946118 0.2500000000069132 0.7499999999998356
0.2500000000946118 0.2500000000069131 0.4999999999996712
0.5000000002852252 0.625000000019195 0.25
0.5000000000964477 0.8750000000063983 0.25
0.5000000000964477 0.8750000000063983 0.75
0.5000000002852251 0.625000000019195 0.75
0.5000000001908365 0.7500000000127967 0.25
0.5000000000964477 0.8750000000063982 0.5
0.5000000001908365 0.7500000000127967 0.75
0.5000000002852251 0.625000000019195 0.5
0.5000000001908365 0.7500000000127967 0.5
0.125000000024112 0.8750000000018667 0.2499999999996708
0.1250000000713063 0.6250000000059408 0.2499999999998903
0.3750000002139189 0.6250000000147772 0.2499999999999634
0.3750000000723358 0.875000000004888 0.2499999999998903
0.1250000000241121 0.875000000001867 0.7499999999996301
0.1250000000713062 0.6250000000059409 0.7499999999998768
0.3750000002139188 0.6250000000147768 0.7499999999999589
0.3750000000723358 0.8750000000048879 0.7499999999998769
0.1250000000477091 0.7500000000038543 0.2499999999997805
0.2500000000482241 0.8750000000033775 0.2499999999997805
0.125000000024112 0.8750000000018672 0.49999999999926
0.2500000001426126 0.6250000000103588 0.2499999999999268
0.1250000000713063 0.6250000000059408 0.4999999999997533
0.3750000001431274 0.7500000000098157 0.2499999999999268
0.3750000002139187 0.6250000000147771 0.4999999999999178
0.3750000000723359 0.8750000000048879 0.4999999999997533
0.1250000000477092 0.7500000000038541 0.7499999999997533
0.2500000000482241 0.8750000000033777 0.7499999999997533
0.2500000001426125 0.625000000010359 0.7499999999999178
0.3750000001431274 0.7500000000098156 0.7499999999999178
0.2500000000954182 0.750000000006835 0.2499999999998537
0.1250000000477092 0.750000000003854 0.4999999999995067
0.250000000048224 0.8750000000033775 0.4999999999995067
0.2500000001426126 0.6250000000103588 0.4999999999998356
0.3750000001431274 0.7500000000098159 0.4999999999998356
0.2500000000954183 0.7500000000068351 0.7499999999998356
0.2500000000954182 0.750000000006835 0.4999999999996712
0.8750000000949034 0.5000000000054188 0.25
0.6250000002847103 0.5000000000188684 0.25
0.6250000002847103 0.5000000000188685 0.75
0.8750000000949034 0.5000000000054188 0.75
0.7500000001898068 0.5000000000121436 0.25
0.6250000002847103 0.5000000000188685 0.5
0.7500000001898068 0.5000000000121436 0.75
0.8750000000949034 0.5000000000054188 0.5
0.7500000001898068 0.5000000000121436 0.5
0.6250000000704427 0.1250000000047433 0.2499999999998903
0.8750000000234812 0.1250000000014331 0.2499999999996708
0.8750000000710956 0.3750000000040901 0.2499999999998903
0.6250000002132877 0.37500000001416 0.2499999999999634
0.625000000070443 0.1250000000047433 0.7499999999998768
0.8750000000234812 0.1250000000014331 0.7499999999996301
0.8750000000710956 0.37500000000409 0.7499999999998769
0.6250000002132878 0.3750000000141601 0.7499999999999589
0.750000000046962 0.1250000000030881 0.2499999999997805
0.6250000001418652 0.2500000000094518 0.2499999999999268
0.6250000000704424 0.1250000000047433 0.4999999999997533
0.8750000000472885 0.2500000000027616 0.2499999999997805
0.8750000000234808 0.1250000000014331 0.49999999999926
0.7500000001421914 0.3750000000091251 0.2499999999999268
0.8750000000710956 0.3750000000040902 0.4999999999997534
0.6250000002132878 0.3750000000141601 0.4999999999999178
0.7500000000469615 0.1250000000030882 0.7499999999997533
0.6250000001418654 0.2500000000094517 0.7499999999999178
0.8750000000472885 0.2500000000027617 0.7499999999997533
0.7500000001421919 0.3750000000091251 0.7499999999999178
0.750000000094577 0.2500000000061067 0.2499999999998537
0.7500000000469619 0.1250000000030882 0.4999999999995067
0.6250000001418653 0.2500000000094516 0.4999999999998356
0.8750000000472885 0.2500000000027617 0.4999999999995067
0.7500000001421916 0.3750000000091253 0.4999999999998356
0.7500000000945769 0.2500000000061067 0.7499999999998356
0.750000000094577 0.2500000000061067 0.4999999999996712
0.6250000000723197 0.8750000000047171 0.2499999999998903
0.6250000002139133 0.6250000000141513 0.2499999999999634
0.8750000000712667 0.6250000000040641 0.2499999999998903
0.8750000000239935 0.8750000000013549 0.2499999999996708
0.6250000000723198 0.8750000000047173 0.7499999999998768
0.6250000002139133 0.6250000000141511 0.7499999999999589
0.8750000000712667 0.6250000000040641 0.7499999999998769
0.8750000000239934 0.8750000000013545 0.7499999999996301
0.6250000001431166 0.7500000000094341 0.2499999999999268
0.7500000000481069 0.8750000000030356 0.2499999999997805
0.6250000000723195 0.8750000000047169 0.4999999999997534
0.7500000001425735 0.6250000000091077 0.2499999999999268
0.6250000002139133 0.6250000000141511 0.4999999999999178
0.8750000000476301 0.7500000000027093 0.2499999999997805
0.875000000071267 0.6250000000040637 0.4999999999997534
0.8750000000239934 0.8750000000013546 0.49999999999926
0.6250000001431165 0.7500000000094342 0.7499999999999178
0.7500000000481067 0.8750000000030362 0.7499999999997533
0.7500000001425735 0.6250000000091075 0.7499999999999178
0.87500000004763 0.7500000000027093 0.7499999999997533
0.7500000000953401 0.7500000000060723 0.2499999999998537
0.6250000001431165 0.7500000000094342 0.4999999999998356
0.7500000000481069 0.8750000000030358 0.4999999999995067
0.7500000001425736 0.6250000000091078 0.4999999999998356
0.8750000000476301 0.7500000000027094 0.4999999999995067
0.7500000000953396 0.7500000000060718 0.7499999999998355
0.7500000000953404 0.7500000000060717 0.4999999999996712

CELLS 4 504
125 0 8 76 29 4 36 209 57 9 10 11 35 34 33 64 65 66 77 78 79 125 126 127 80 81 82 258 259 260 188 189 190 37 38 39 63 62 61 210 211 212 213 214 215 83 86 85 84 90 89 88 87 91 128 129 130 131 132 133 134 135 136 201 202 203 200 205 206 207 204 208 261 262 263 264 265 266 267 268 269 270 271 272 273 274 275 276 277 278 216 217 218 219 220 221 222 223 224 279 280 281 282 283 284 285 286 287 288 289 290 291 292 293 294 295 296 297 298 299 300 301 302 303 304 305
125 3 29 76 22 7 57 209 50 30 31 32 28 27 26 73 74 75 82 81 80 188 189 190 92 93 94 258 259 260 167 168 169 58 59 60 56 55 54 215 214 213 225 226 227 95 98 97 96 102 101 100 99 103 191 192 193 194 195 196 197 198 199 180 181 182 179 184 185 186 183 187 271 270 273 272 274 277 276 275 278 306 307 308 309 310 311 312 313 314 228 229 230 231 232 233 234 235 236 315 316 317 318 319 320 321 322 323 324 325 326 327 328 329 330 331 332 333 334 335 336 337 338 339 340 341
125 8 1 15 76 36 5 43 209 12 13 14 77 78 79 125 126 127 16 17 18 67 68 69 104 105 106 146 147 148 258 259 260 40 41 42 210 211 212 44 45 46 237 238 239 107 110 109 108 114 113 112 111 115 137 138 139 140 141 142 143 144 145 261 264 263 262 268 267 266 265 269 149 150 151 152 153 154 155 156 157 342 343 344 345 346 347 348 349 350 240 241 242 243 244 245 246 247 248 351 352 353 354 355 356 357 358 359 360 361 362 363 364 365 366 367 368 369 370 371 372 373 374 375 376 377
125 22 76 15 2 50 209 43 6 94 93 92 25 24 23 167 168 169 106 105 104 258 259 260 19 20 21 146 147 148 70 71 72 227 226 225 53 52 51 239 238 237 47 48 49 116 119 118 117 123 122 121 120 124 307 306 309 308 310 313 312 311 314 171 172 173 170 175 176 177 174 178 343 342 345 344 346 349 348 347 350 158 159 160 161 162 163 164 165 166 249 250 251 252 253 254 255 256 257 378 379 380 381 382 383 384 385 386 387 388 389 390 391 392 393 394 395 396 397 398 399 400 401 402 403 404

CELL_TYPES 4
12
12
12
12

CELL_DATA 4
SCALARS CellEntityIds int 1
LOOKUP_TABLE default
1
1
1
1
